LAMMPS data file via write_data, version 3 Mar 2020, timestep = 500022

16576 atoms
3 atom types

8.5324230243131183e-02 6.0613888759751354e+01 xlo xhi
8.3433153176338237e-01 3.6658004998224033e+02 ylo yhi
-5.0665368673000003e+01 5.0065368673000009e+01 zlo zhi

Masses

1 12.0112
2 14.0067
3 12.0112

Atoms # full

180 1 1 0.0000000000000000e+00 4.7083181284958346e+00 3.0495789896166041e+00 3.2539305183593441e+01 0 0 0
181 1 1 0.0000000000000000e+00 3.2428497117338084e+00 2.9175462661755662e+00 3.2487786126597513e+01 0 0 0
178 1 1 0.0000000000000000e+00 1.0341431151942531e+00 3.9421768763358043e+00 3.2432554087957342e+01 0 0 0
182 1 1 0.0000000000000000e+00 2.4377723627473169e+00 4.0748351308072968e+00 3.2437007281055443e+01 0 0 0
185 1 1 0.0000000000000000e+00 5.3551331224680858e+00 4.3300933623401887e+00 3.2400442656528455e+01 0 0 0
184 1 1 0.0000000000000000e+00 3.0844694130225787e+00 5.3763659590619142e+00 3.2196635665457151e+01 0 0 0
129 1 1 0.0000000000000000e+00 5.5471399467906117e+00 1.8727301359049591e+00 3.2530055552659732e+01 0 0 0
183 1 1 0.0000000000000000e+00 4.5300028012766473e+00 5.4749345514379764e+00 3.2263741072006368e+01 0 0 0
175 1 1 0.0000000000000000e+00 3.6847819820705391e-01 2.6491396545268904e+00 3.2442216843356405e+01 0 0 0
177 1 1 0.0000000000000000e+00 1.2161235080283690e+00 1.5141738615357887e+00 3.2395141107227531e+01 0 0 0
179 1 1 0.0000000000000000e+00 2.6648291493236340e+00 1.6402549504731370e+00 3.2397793861251259e+01 0 0 0
235 1 1 0.0000000000000000e+00 8.6223241227729797e-01 6.4183452032363091e+00 3.1947569164133924e+01 0 0 0
237 1 1 0.0000000000000000e+00 2.3281863839424974e+00 6.5433736862107814e+00 3.2011301521766057e+01 0 0 0
230 1 1 0.0000000000000000e+00 2.3469184201981827e-01 5.1349800838000155e+00 3.2188705561781362e+01 0 0 0
138 1 1 0.0000000000000000e+00 1.1252432425867557e+01 2.3421353200871917e+00 3.2332489473148854e+01 0 0 0
187 1 1 0.0000000000000000e+00 6.7927847474683052e+00 4.4554457245816765e+00 3.2371547010202548e+01 0 0 0
141 1 1 0.0000000000000000e+00 1.1039861946038261e+01 4.8296692295815902e+00 3.2274867499616732e+01 0 0 0
133 1 1 0.0000000000000000e+00 6.9155307323282109e+00 1.9907170001542118e+00 3.2459237798698638e+01 0 0 0
135 1 1 0.0000000000000000e+00 7.6017103022016617e+00 3.2837622571182461e+00 3.2362200428781961e+01 0 0 0
136 1 1 0.0000000000000000e+00 9.8388080361938943e+00 2.2239104832245804e+00 3.2315955102727955e+01 0 0 0
134 1 1 0.0000000000000000e+00 9.0086921343398636e+00 3.4005530831319435e+00 3.2179919625576574e+01 0 0 0
137 1 1 0.0000000000000000e+00 9.6235190922047771e+00 4.7110640268556452e+00 3.2255015637491951e+01 0 0 0
131 1 1 0.0000000000000000e+00 9.2448652840374983e+00 9.4657404237886245e-01 3.2409807244150826e+01 0 0 0
189 1 1 0.0000000000000000e+00 7.3747207846281473e+00 5.7235795389778650e+00 3.2298066197221999e+01 0 0 0
188 1 1 0.0000000000000000e+00 8.7892743937770810e+00 5.8927427892821997e+00 3.2277207811604924e+01 0 0 0
140 1 1 0.0000000000000000e+00 1.1862093686403842e+01 3.6722547975266986e+00 3.2273245021484044e+01 0 0 0
143 1 1 0.0000000000000000e+00 1.1662604635639868e+01 6.1065263072048088e+00 3.2126303846199178e+01 0 0 0
85 1 1 0.0000000000000000e+00 1.2063092101452597e+01 1.1397320469579504e+00 3.2468052520885934e+01 0 0 0
87 1 1 0.0000000000000000e+00 1.4107255782558614e+01 2.5866676019019224e+00 3.2129912299930851e+01 0 0 0
139 1 1 0.0000000000000000e+00 1.3286544392756781e+01 3.7662405674096386e+00 3.2142416567426167e+01 0 0 0
144 1 1 0.0000000000000000e+00 1.3911196281335849e+01 5.0846911131274535e+00 3.2039384527736203e+01 0 0 0
146 1 1 0.0000000000000000e+00 1.5356959023703139e+01 5.1509590823544960e+00 3.1885360401772900e+01 0 0 0
92 1 1 0.0000000000000000e+00 1.7564249136684122e+01 4.0828869080748458e+00 3.1691870525719040e+01 0 0 0
91 1 1 0.0000000000000000e+00 1.5528964150499757e+01 2.7106182748397347e+00 3.1980433722848730e+01 0 0 0
90 1 1 0.0000000000000000e+00 1.6320476585785176e+01 1.5422837316148246e+00 3.2062771244170335e+01 0 0 0
93 1 1 0.0000000000000000e+00 1.6196328583426563e+01 3.9932984292112170e+00 3.1907820161664660e+01 0 0 0
89 1 1 0.0000000000000000e+00 1.7759506197623686e+01 1.6356503353510221e+00 3.1898544770659456e+01 0 0 0
84 1 1 0.0000000000000000e+00 1.3478853620122518e+01 1.3079996319489346e+00 3.2417184721289019e+01 0 0 0
142 1 1 0.0000000000000000e+00 1.3092495915463605e+01 6.2619632379327061e+00 3.1995001889220433e+01 0 0 0
148 1 1 0.0000000000000000e+00 1.5943914651402030e+01 6.4316868744038187e+00 3.1531428879058296e+01 0 0 0
95 1 1 0.0000000000000000e+00 1.8174997732100152e+01 5.3601806116609145e+00 3.1476362666263739e+01 0 0 0
96 1 1 0.0000000000000000e+00 1.9814325767298651e+01 2.9973291326236886e+00 3.1630445495926537e+01 0 0 0
98 1 1 0.0000000000000000e+00 2.0395899585219823e+01 4.2988826051536559e+00 3.1355608017959241e+01 0 0 0
97 1 1 0.0000000000000000e+00 2.1832501792666086e+01 4.4312525091101627e+00 3.1175289148067961e+01 0 0 0
94 1 1 0.0000000000000000e+00 1.8357398624029173e+01 2.8939007436846240e+00 3.1771231581238951e+01 0 0 0
53 1 1 0.0000000000000000e+00 2.2610079601801797e+01 3.1901764366895082e+00 3.1324327940319989e+01 0 0 0
51 1 1 0.0000000000000000e+00 2.0582730818176163e+01 1.7973115547154670e+00 3.1747358322471243e+01 0 0 0
50 1 1 0.0000000000000000e+00 2.2025276786675850e+01 1.9117226504822229e+00 3.1549873896918783e+01 0 0 0
99 1 1 0.0000000000000000e+00 1.9580225199197084e+01 5.4735215159998196e+00 3.1341948915339287e+01 0 0 0
102 1 1 0.0000000000000000e+00 2.2474184113817877e+01 5.6630019494537596e+00 3.0926855540428747e+01 0 0 0
104 1 1 0.0000000000000000e+00 2.3890932966191158e+01 5.7351959574398856e+00 3.0778715074885653e+01 0 0 0
57 1 1 0.0000000000000000e+00 2.4085434845325697e+01 3.3149622048933245e+00 3.1148910845811642e+01 0 0 0
59 1 1 0.0000000000000000e+00 2.4699852071512840e+01 4.5559960137173796e+00 3.0929941336088234e+01 0 0 0
58 1 1 0.0000000000000000e+00 2.6126831033880329e+01 4.7097267488750720e+00 3.0828335901422079e+01 0 0 0
1244 2 1 0.0000000000000000e+00 2.6949528073021636e+01 3.5118276173742049e+00 3.0848966293744809e+01 0 0 0
1415 2 1 0.0000000000000000e+00 2.8986599880579739e+01 4.9565647537160888e+00 3.0758108013606517e+01 0 0 0
1360 2 1 0.0000000000000000e+00 2.9216026581812741e+01 2.4898486492777812e+00 3.1130297755152995e+01 0 0 0
1413 2 1 0.0000000000000000e+00 2.8354692923974550e+01 3.6305194304020945e+00 3.0891641059051310e+01 0 0 0
55 1 1 0.0000000000000000e+00 2.6370882050061471e+01 2.2350679812075578e+00 3.1128430733836183e+01 0 0 0
1210 2 1 0.0000000000000000e+00 2.7194871604613983e+01 1.0737141964731045e+00 3.1353747746521890e+01 0 0 0
56 1 1 0.0000000000000000e+00 2.4912451536193121e+01 2.1119037940955288e+00 3.1294531654083414e+01 0 0 0
1358 2 1 0.0000000000000000e+00 2.8613371545825139e+01 1.1817989018515520e+00 3.1334590780908670e+01 0 0 0
1245 2 1 0.0000000000000000e+00 2.6739740934252680e+01 5.9828339146214544e+00 3.0689164814585382e+01 0 0 0
1416 2 1 0.0000000000000000e+00 2.8159288204454089e+01 6.1061037532637856e+00 3.0672947206729859e+01 0 0 0
240 1 1 0.0000000000000000e+00 2.1199205251590860e+00 9.0782951662851410e+00 3.1855893881768182e+01 0 0 0
238 1 1 0.0000000000000000e+00 4.3422213879295004e+00 7.9600790817369189e+00 3.2058297978694597e+01 0 0 0
243 1 1 0.0000000000000000e+00 4.9487594470692491e+00 9.2552678663275803e+00 3.1896233651648728e+01 0 0 0
239 1 1 0.0000000000000000e+00 2.9175763077999748e+00 7.8301984041969259e+00 3.1943377062039389e+01 0 0 0
236 1 1 0.0000000000000000e+00 7.1547122035840860e-01 8.9439524632639209e+00 3.1813453108315272e+01 0 0 0
186 1 1 0.0000000000000000e+00 5.1756304952804557e+00 6.8108948025905240e+00 3.2184289500026551e+01 0 0 0
242 1 1 0.0000000000000000e+00 2.7767568280415866e+00 1.0377554561731300e+01 3.1724298943626764e+01 0 0 0
241 1 1 0.0000000000000000e+00 4.1912729372278026e+00 1.0425490628516629e+01 3.1733405773323227e+01 0 0 0
294 1 1 0.0000000000000000e+00 4.9734917780736215e-01 1.1422619487953426e+01 3.1664258787538046e+01 0 0 0
296 1 1 0.0000000000000000e+00 1.9462422920065032e+00 1.1551281518078016e+01 3.1708689454520325e+01 0 0 0
244 1 1 0.0000000000000000e+00 4.7039177061678394e+00 1.1765540982033670e+01 3.1645469571067110e+01 0 0 0
861 1 3 0.0000000000000000e+00 4.5320215750029735e+00 3.0709445160529750e+01 3.3368868462310488e+01 0 0 0
248 1 1 0.0000000000000000e+00 6.1146813399961442e+00 1.1882895088713116e+01 3.1492684724307210e+01 0 0 0
245 1 1 0.0000000000000000e+00 6.4039748560896941e+00 9.3576366671647033e+00 3.1733007890343657e+01 0 0 0
195 1 1 0.0000000000000000e+00 1.0865115696984480e+01 7.2932199904343555e+00 3.2089688980333705e+01 0 0 0
191 1 1 0.0000000000000000e+00 8.6190904954576109e+00 8.3582436228017194e+00 3.1804183086377449e+01 0 0 0
192 1 1 0.0000000000000000e+00 7.2248183931188201e+00 8.1687552573060316e+00 3.1898138426316507e+01 0 0 0
194 1 1 0.0000000000000000e+00 9.1726949046329569e+00 9.6323574115747377e+00 3.1556416733985600e+01 0 0 0
190 1 1 0.0000000000000000e+00 6.5885634419623678e+00 6.9045456515215982e+00 3.2127330727669730e+01 0 0 0
193 1 1 0.0000000000000000e+00 9.3969273330470156e+00 7.1603533249506581e+00 3.2129816991627095e+01 0 0 0
198 1 1 0.0000000000000000e+00 1.0606391722160934e+01 9.7598701626809721e+00 3.1555778830081167e+01 0 0 0
197 1 1 0.0000000000000000e+00 1.1430946495271698e+01 8.5857736441811312e+00 3.1769525696375425e+01 0 0 0
247 1 1 0.0000000000000000e+00 6.9721692777258912e+00 1.0670551613826717e+01 3.1505896926607690e+01 0 0 0
246 1 1 0.0000000000000000e+00 8.3752912004984434e+00 1.0802327810499383e+01 3.1400555204407880e+01 0 0 0
200 1 1 0.0000000000000000e+00 1.1228654458275347e+01 1.1008196474464741e+01 3.1402707334639786e+01 0 0 0
251 1 1 0.0000000000000000e+00 9.0016312486465626e+00 1.2090269067675564e+01 3.1314335696429268e+01 0 0 0
253 1 1 0.0000000000000000e+00 1.0431092568476267e+01 1.2239231068788262e+01 3.1257616622420798e+01 0 0 0
147 1 1 0.0000000000000000e+00 1.7352665584776908e+01 6.5250308182763090e+00 3.1336699847309220e+01 0 0 0
150 1 1 0.0000000000000000e+00 1.7177198399116129e+01 9.0329176744812507e+00 3.1119965161102655e+01 0 0 0
149 1 1 0.0000000000000000e+00 1.5087808326675750e+01 7.6071452435218063e+00 3.1520728581666987e+01 0 0 0
196 1 1 0.0000000000000000e+00 1.2897160054130548e+01 8.7023802183884555e+00 3.1655448283797298e+01 0 0 0
151 1 1 0.0000000000000000e+00 1.5740099308089814e+01 8.8633994228760198e+00 3.1307515834350667e+01 0 0 0
145 1 1 0.0000000000000000e+00 1.3706012790131680e+01 7.4885275458259075e+00 3.1736173034507587e+01 0 0 0
201 1 1 0.0000000000000000e+00 1.3485314212764139e+01 9.9463880440095895e+00 3.1411545736871616e+01 0 0 0
203 1 1 0.0000000000000000e+00 1.4909620077313786e+01 1.0024681923247071e+01 3.1245387223272218e+01 0 0 0
199 1 1 0.0000000000000000e+00 1.2680339852926842e+01 1.1129762350968642e+01 3.1324814736796071e+01 0 0 0
153 1 1 0.0000000000000000e+00 1.7810607791865142e+01 1.0295205707743603e+01 3.0980477251585825e+01 0 0 0
205 1 1 0.0000000000000000e+00 1.5538121765329871e+01 1.1334810078124331e+01 3.1064266660716925e+01 0 0 0
204 1 1 0.0000000000000000e+00 1.6995582539741179e+01 1.1479354086280575e+01 3.0861122281505288e+01 0 0 0
152 1 1 0.0000000000000000e+00 1.8038788527974937e+01 7.8220152106501786e+00 3.1064303692342662e+01 0 0 0
155 1 1 0.0000000000000000e+00 2.1465800271446138e+01 9.3192389023769522e+00 3.0764069616613924e+01 0 0 0
103 1 1 0.0000000000000000e+00 2.2268864533896448e+01 8.1844590779254283e+00 3.0789252612243970e+01 0 0 0
154 1 1 0.0000000000000000e+00 1.9459254683732649e+01 7.8943468987698067e+00 3.0919924383663002e+01 0 0 0
100 1 1 0.0000000000000000e+00 2.1697911553702081e+01 6.8213322942279708e+00 3.0844570469765642e+01 0 0 0
156 1 1 0.0000000000000000e+00 2.0047740552653643e+01 9.2049220651892814e+00 3.0815176953469987e+01 0 0 0
101 1 1 0.0000000000000000e+00 2.0213718869990210e+01 6.6951769673073054e+00 3.1053622426298475e+01 0 0 0
157 1 1 0.0000000000000000e+00 1.9239056246281578e+01 1.0376608247207892e+01 3.0818084622258837e+01 0 0 0
160 1 1 0.0000000000000000e+00 2.2088693796557287e+01 1.0611357477434993e+01 3.0668006448789711e+01 0 0 0
162 1 1 0.0000000000000000e+00 2.3509180725390717e+01 1.0752295061213625e+01 3.0486929692219363e+01 0 0 0
107 1 1 0.0000000000000000e+00 2.3693910681192719e+01 8.2376117390388757e+00 3.0677091081448950e+01 0 0 0
159 1 1 0.0000000000000000e+00 1.9857508414825674e+01 1.1676023875676879e+01 3.0661416425099446e+01 0 0 0
158 1 1 0.0000000000000000e+00 2.1277778344290663e+01 1.1816943168165306e+01 3.0601340921280254e+01 0 0 0
164 1 1 0.0000000000000000e+00 2.4087433068220466e+01 1.2033512697511943e+01 3.0330660379870935e+01 0 0 0
109 1 1 0.0000000000000000e+00 2.4310097471314901e+01 9.5224422630043186e+00 3.0542140516179686e+01 0 0 0
1417 2 1 0.0000000000000000e+00 3.0191550910930001e+01 7.4997616108837137e+00 3.0579977857853820e+01 0 0 0
1473 2 1 0.0000000000000000e+00 3.0061897821718404e+01 9.9757699380296856e+00 3.0207926840693673e+01 0 0 0
110 1 1 0.0000000000000000e+00 2.6563597733778753e+01 8.4953590873407983e+00 3.0444943881765681e+01 0 0 0
108 1 1 0.0000000000000000e+00 2.5736807801961842e+01 9.6773956502233762e+00 3.0369727986900202e+01 0 0 0
1474 2 1 0.0000000000000000e+00 2.8624070047558703e+01 9.8837484064008159e+00 3.0200948401726606e+01 0 0 0
1418 2 1 0.0000000000000000e+00 2.8774295590792839e+01 7.3880791369307781e+00 3.0557041674158796e+01 0 0 0
1472 2 1 0.0000000000000000e+00 2.8001642945371209e+01 8.5817275017881514e+00 3.0326120876782355e+01 0 0 0
106 1 1 0.0000000000000000e+00 2.4494214786648655e+01 7.0310814315988095e+00 3.0681691116508048e+01 0 0 0
105 1 1 0.0000000000000000e+00 2.5954644328771899e+01 7.1735696598933929e+00 3.0617049163622411e+01 0 0 0
111 1 1 0.0000000000000000e+00 2.6356552872735694e+01 1.0996380320889994e+01 3.0209624785711753e+01 0 0 0
1475 2 1 0.0000000000000000e+00 2.7791921351758518e+01 1.1055749706094508e+01 3.0126862052226031e+01 0 0 0
163 1 1 0.0000000000000000e+00 2.5534833458238683e+01 1.2144611128855239e+01 3.0168922958176879e+01 0 0 0
300 1 1 0.0000000000000000e+00 3.7330305351093909e+00 1.5432715761799173e+01 3.1270439515530825e+01 0 0 0
302 1 1 0.0000000000000000e+00 4.5661974120651534e+00 1.4283557096554592e+01 3.1367795578445111e+01 0 0 0
297 1 1 0.0000000000000000e+00 3.9323389617431541e+00 1.3013465116362431e+01 3.1556994421268570e+01 0 0 0
301 1 1 0.0000000000000000e+00 2.3273011160321273e+00 1.5345830984085183e+01 3.1311503738001790e+01 0 0 0
295 1 1 0.0000000000000000e+00 3.2263640539860533e-01 1.3865292001403631e+01 3.1279445694050153e+01 0 0 0
299 1 1 0.0000000000000000e+00 1.7228702476845057e+00 1.4054817515880673e+01 3.1391548876658760e+01 0 0 0
298 1 1 0.0000000000000000e+00 2.5069494811503574e+00 1.2875860347972676e+01 3.1565395939762723e+01 0 0 0
356 1 1 0.0000000000000000e+00 1.4999434983235251e+00 1.6514286547905208e+01 3.1132161794101791e+01 0 0 0
303 1 1 0.0000000000000000e+00 4.3635020641688129e+00 1.6733375997132363e+01 3.1126046834252620e+01 0 0 0
307 1 1 0.0000000000000000e+00 5.8166720251222523e+00 1.6845168762652555e+01 3.1051061209606360e+01 0 0 0
304 1 1 0.0000000000000000e+00 5.9651975253430534e+00 1.4403155152735749e+01 3.1282380258446878e+01 0 0 0
358 1 1 0.0000000000000000e+00 2.0877564805809854e+00 1.7813780877285488e+01 3.0974031379902598e+01 0 0 0
357 1 1 0.0000000000000000e+00 3.5335032296364051e+00 1.7891651472459010e+01 3.0975518403157622e+01 0 0 0
256 1 1 0.0000000000000000e+00 1.0239205148597810e+01 1.4662813677426799e+01 3.1232391707268008e+01 0 0 0
252 1 1 0.0000000000000000e+00 8.7873661901285214e+00 1.4597020107578706e+01 3.1283549252833737e+01 0 0 0
255 1 1 0.0000000000000000e+00 1.1036861065561364e+01 1.3496308055219195e+01 3.1214296676049457e+01 0 0 0
250 1 1 0.0000000000000000e+00 6.7324840939168444e+00 1.3156481468539994e+01 3.1350971368946901e+01 0 0 0
249 1 1 0.0000000000000000e+00 8.1652433625694396e+00 1.3298212742410835e+01 3.1346456545132824e+01 0 0 0
306 1 1 0.0000000000000000e+00 6.5853172062762955e+00 1.5646181508461293e+01 3.1128243742303184e+01 0 0 0
305 1 1 0.0000000000000000e+00 7.9555293153058857e+00 1.5759594851070247e+01 3.1143885986130869e+01 0 0 0
258 1 1 0.0000000000000000e+00 1.0856384167290583e+01 1.5909237813942724e+01 3.1131520313941451e+01 0 0 0
310 1 1 0.0000000000000000e+00 8.6079527447824731e+00 1.7025072578342233e+01 3.0985406274108371e+01 0 0 0
312 1 1 0.0000000000000000e+00 1.0030264252166480e+01 1.7120505347139257e+01 3.0971186256828247e+01 0 0 0
257 1 1 0.0000000000000000e+00 1.2294589279337348e+01 1.6063816157507244e+01 3.1027143765693637e+01 0 0 0
259 1 1 0.0000000000000000e+00 1.3101656839662988e+01 1.4854218503587166e+01 3.1010997186389005e+01 0 0 0
254 1 1 0.0000000000000000e+00 1.2477750634527773e+01 1.3593406646415771e+01 3.1122268163949101e+01 0 0 0
261 1 1 0.0000000000000000e+00 1.4539964434588613e+01 1.4967230365932473e+01 3.0805336728702528e+01 0 0 0
207 1 1 0.0000000000000000e+00 1.6773659484504325e+01 1.3938376989793387e+01 3.0699792966433762e+01 0 0 0
208 1 1 0.0000000000000000e+00 1.5354523203388222e+01 1.3794826454129652e+01 3.0845766058902242e+01 0 0 0
206 1 1 0.0000000000000000e+00 1.4737886496129102e+01 1.2533615570710054e+01 3.1005973804256243e+01 0 0 0
202 1 1 0.0000000000000000e+00 1.3289638900174282e+01 1.2400450166114080e+01 3.1202153328605718e+01 0 0 0
210 1 1 0.0000000000000000e+00 1.7402983552416007e+01 1.5189864563694005e+01 3.0549382105160205e+01 0 0 0
263 1 1 0.0000000000000000e+00 1.5120872978130501e+01 1.6259904218096175e+01 3.0573083748246773e+01 0 0 0
209 1 1 0.0000000000000000e+00 1.7592302348954178e+01 1.2737004606950320e+01 3.0676316857811955e+01 0 0 0
262 1 1 0.0000000000000000e+00 1.6564706780569395e+01 1.6348181125230212e+01 3.0432761285559934e+01 0 0 0
260 1 1 0.0000000000000000e+00 1.2911524159724282e+01 1.7311179019450780e+01 3.0791065500928781e+01 0 0 0
264 1 1 0.0000000000000000e+00 1.4334259621361204e+01 1.7435021425016309e+01 3.0493530160347532e+01 0 0 0
267 1 1 0.0000000000000000e+00 1.7173163950470535e+01 1.7652204684622383e+01 3.0319522845012202e+01 0 0 0
214 1 1 0.0000000000000000e+00 1.8839257140427573e+01 1.5306202206169088e+01 3.0485071462242928e+01 0 0 0
212 1 1 0.0000000000000000e+00 2.1048934292868775e+01 1.4292337865365317e+01 3.0472366597778816e+01 0 0 0
213 1 1 0.0000000000000000e+00 1.9667753161628330e+01 1.4126806520560752e+01 3.0522742036594792e+01 0 0 0
161 1 1 0.0000000000000000e+00 2.1858579377276161e+01 1.3111867427472271e+01 3.0458520208533358e+01 0 0 0
211 1 1 0.0000000000000000e+00 1.9034711349700512e+01 1.2810563209083989e+01 3.0536784010715266e+01 0 0 0
217 1 1 0.0000000000000000e+00 2.1663461706824915e+01 1.5592996990190338e+01 3.0350294077514079e+01 0 0 0
165 1 1 0.0000000000000000e+00 2.3246497577637921e+01 1.3229388938513646e+01 3.0302191181946569e+01 0 0 0
219 1 1 0.0000000000000000e+00 2.3070427503142287e+01 1.5703529075537075e+01 3.0320535534033979e+01 0 0 0
216 1 1 0.0000000000000000e+00 1.9407162270372780e+01 1.6607222891999669e+01 3.0289145682876594e+01 0 0 0
215 1 1 0.0000000000000000e+00 2.0850322674811519e+01 1.6741595447264785e+01 3.0229459499161663e+01 0 0 0
221 1 1 0.0000000000000000e+00 2.3730327740797801e+01 1.7026468069916866e+01 3.0107171134579204e+01 0 0 0
167 1 1 0.0000000000000000e+00 2.3918241144961502e+01 1.4542428876174778e+01 3.0240441041219057e+01 0 0 0
269 1 1 0.0000000000000000e+00 1.8605910533076038e+01 1.7756306070086289e+01 3.0251595384136081e+01 0 0 0
1534 2 1 0.0000000000000000e+00 2.8232339521529124e+01 1.4830395335337675e+01 3.0069729321855817e+01 0 0 0
1532 2 1 0.0000000000000000e+00 2.7605361376989386e+01 1.3485805137170701e+01 3.0026591237480673e+01 0 0 0
166 1 1 0.0000000000000000e+00 2.5372311720714350e+01 1.4655726811239111e+01 3.0118112655487053e+01 0 0 0
168 1 1 0.0000000000000000e+00 2.6168366495765721e+01 1.3457712968866595e+01 3.0108247909540736e+01 0 0 0
1477 2 1 0.0000000000000000e+00 2.8419281815653417e+01 1.2324101353331212e+01 3.0034571060969213e+01 0 0 0
169 1 1 0.0000000000000000e+00 2.6006702685399002e+01 1.5916640542159746e+01 3.0019970415112795e+01 0 0 0
1535 2 1 0.0000000000000000e+00 2.7419111811256620e+01 1.5993002897406404e+01 3.0007563610685054e+01 0 0 0
1533 2 1 0.0000000000000000e+00 2.9682527179577772e+01 1.4976870790915440e+01 3.0174996378234155e+01 0 0 0
1476 2 1 0.0000000000000000e+00 2.9832217026966021e+01 1.2442212763733478e+01 3.0069485399713443e+01 0 0 0
220 1 1 0.0000000000000000e+00 2.5177547985148212e+01 1.7139677080530454e+01 3.0027442969591917e+01 0 0 0
1537 2 1 0.0000000000000000e+00 2.8035513647201366e+01 1.7312435454807911e+01 3.0047663785126375e+01 0 0 0
1536 2 1 0.0000000000000000e+00 2.9484350699587115e+01 1.7378224954883184e+01 3.0085777377753047e+01 0 0 0
1538 2 1 0.0000000000000000e+00 3.0308607753719762e+01 1.6223141940621865e+01 3.0220494896623791e+01 0 0 0
414 1 1 0.0000000000000000e+00 1.0412069186098281e+00 2.1409624065206170e+01 3.0450878305090285e+01 0 0 0
361 1 1 0.0000000000000000e+00 1.8673086494590223e+00 2.0251507013492983e+01 3.0578562541349342e+01 0 0 0
359 1 1 0.0000000000000000e+00 1.2374666659421401e+00 1.8963544770777577e+01 3.0774928412108508e+01 0 0 0
360 1 1 0.0000000000000000e+00 3.3079364444429111e+00 2.0316684963661956e+01 3.0595664556719470e+01 0 0 0
362 1 1 0.0000000000000000e+00 4.1668113262616355e+00 1.9160116537936698e+01 3.0881066551059163e+01 0 0 0
363 1 1 0.0000000000000000e+00 3.8964614584423032e+00 2.1614264936525565e+01 3.0308984441596280e+01 0 0 0
367 1 1 0.0000000000000000e+00 5.3441483129233118e+00 2.1721148400247788e+01 3.0404061084159892e+01 0 0 0
364 1 1 0.0000000000000000e+00 5.5689458054857743e+00 1.9304699001788105e+01 3.0846302342851573e+01 0 0 0
416 1 1 0.0000000000000000e+00 1.6686926591576536e+00 2.2707078867577156e+01 3.0273589078541093e+01 0 0 0
415 1 1 0.0000000000000000e+00 3.0761077807359514e+00 2.2797520219682877e+01 3.0291761571455226e+01 0 0 0
369 1 1 0.0000000000000000e+00 5.9480389100705873e+00 2.3021664183462455e+01 3.0304282209938322e+01 0 0 0
366 1 1 0.0000000000000000e+00 6.1720009729802721e+00 2.0518498827311795e+01 3.0594085707078492e+01 0 0 0
365 1 1 0.0000000000000000e+00 7.5656579622209978e+00 2.0655046040816575e+01 3.0466518519445330e+01 0 0 0
315 1 1 0.0000000000000000e+00 9.8316199124967518e+00 1.9565411174754377e+01 3.0504311765021399e+01 0 0 0
311 1 1 0.0000000000000000e+00 8.4394188548847850e+00 1.9496329513363939e+01 3.0509879162825015e+01 0 0 0
317 1 1 0.0000000000000000e+00 1.0431358426293835e+01 2.0853706171879054e+01 3.0301208777409215e+01 0 0 0
314 1 1 0.0000000000000000e+00 1.0636765923525473e+01 1.8400862516313353e+01 3.0808216553733843e+01 0 0 0
308 1 1 0.0000000000000000e+00 7.7876846867339919e+00 1.8244191319564877e+01 3.0832625176124694e+01 0 0 0
309 1 1 0.0000000000000000e+00 6.3619814223717235e+00 1.8137081554394406e+01 3.0962518339919384e+01 0 0 0
370 1 1 0.0000000000000000e+00 8.1980892986620262e+00 2.1964921788167967e+01 3.0336601481205960e+01 0 0 0
372 1 1 0.0000000000000000e+00 9.6348011403931029e+00 2.2002901050244041e+01 3.0256220965453778e+01 0 0 0
316 1 1 0.0000000000000000e+00 1.1859125907324291e+01 2.0938675580799408e+01 3.0283285594533126e+01 0 0 0
368 1 1 0.0000000000000000e+00 7.3917444984641199e+00 2.3147496476314426e+01 3.0271345468634308e+01 0 0 0
374 1 1 0.0000000000000000e+00 1.0254304110209358e+01 2.3327221481573606e+01 3.0063057774426184e+01 0 0 0
373 1 1 0.0000000000000000e+00 1.1697940266231104e+01 2.3437505390621855e+01 3.0034320371357438e+01 0 0 0
313 1 1 0.0000000000000000e+00 1.2098517230422097e+01 1.8477971531211082e+01 3.0726523786871596e+01 0 0 0
266 1 1 0.0000000000000000e+00 1.4909787226368300e+01 1.8722553441002056e+01 3.0260473287628088e+01 0 0 0
318 1 1 0.0000000000000000e+00 1.2681557395544266e+01 1.9765110757552819e+01 3.0461127854903367e+01 0 0 0
320 1 1 0.0000000000000000e+00 1.4106863794254243e+01 1.9891130991068636e+01 3.0297205169259101e+01 0 0 0
265 1 1 0.0000000000000000e+00 1.6324683904078952e+01 1.8838971957995852e+01 3.0161231299985602e+01 0 0 0
268 1 1 0.0000000000000000e+00 1.6943818772846033e+01 2.0118745904984536e+01 3.0063832549846310e+01 0 0 0
322 1 1 0.0000000000000000e+00 1.4709301373619120e+01 2.1149473066306815e+01 3.0082012539227236e+01 0 0 0
321 1 1 0.0000000000000000e+00 1.6116703436286436e+01 2.1319427352884912e+01 3.0013688603435980e+01 0 0 0
319 1 1 0.0000000000000000e+00 1.2498095534962308e+01 2.2264535683278226e+01 3.0145455492929429e+01 0 0 0
323 1 1 0.0000000000000000e+00 1.3924378827043849e+01 2.2323594424318610e+01 2.9991124765255094e+01 0 0 0
326 1 1 0.0000000000000000e+00 1.6703016148106762e+01 2.2585073503909385e+01 2.9820975906306160e+01 0 0 0
328 1 1 0.0000000000000000e+00 1.8164843938097036e+01 2.2734291642882681e+01 2.9814516346330237e+01 0 0 0
325 1 1 0.0000000000000000e+00 1.4508585221147206e+01 2.3636634143064779e+01 2.9827071466897110e+01 0 0 0
272 1 1 0.0000000000000000e+00 1.8377716966581939e+01 2.0250712222819821e+01 2.9944656967772957e+01 0 0 0
218 1 1 0.0000000000000000e+00 2.1455511645287061e+01 1.8046488557753435e+01 3.0098671985356461e+01 0 0 0
222 1 1 0.0000000000000000e+00 2.2892343215060002e+01 1.8185927924033226e+01 3.0040381686790937e+01 0 0 0
271 1 1 0.0000000000000000e+00 1.9221710400184755e+01 1.9051508371137164e+01 3.0059731739908443e+01 0 0 0
270 1 1 0.0000000000000000e+00 2.0644588701734840e+01 1.9204807456714057e+01 3.0026307152314999e+01 0 0 0
275 1 1 0.0000000000000000e+00 2.1201688420649035e+01 2.0501381922218862e+01 3.0005571420936590e+01 0 0 0
277 1 1 0.0000000000000000e+00 2.2606198446387712e+01 2.0609627822183128e+01 2.9987817052071065e+01 0 0 0
274 1 1 0.0000000000000000e+00 1.8998902455861543e+01 2.1550001120748032e+01 2.9856867246498595e+01 0 0 0
273 1 1 0.0000000000000000e+00 2.0399965183583170e+01 2.1687506616603390e+01 2.9922261853962823e+01 0 0 0
224 1 1 0.0000000000000000e+00 2.3492543788663191e+01 1.9490497595611831e+01 3.0004760311728859e+01 0 0 0
279 1 1 0.0000000000000000e+00 2.3240033405725615e+01 2.1896379109002773e+01 2.9998241797471351e+01 0 0 0
276 1 1 0.0000000000000000e+00 2.1084061743678458e+01 2.2953485097620941e+01 2.9905460150170455e+01 0 0 0
280 1 1 0.0000000000000000e+00 2.2484253861434802e+01 2.3063020534105608e+01 2.9873968214764147e+01 0 0 0
1596 2 1 0.0000000000000000e+00 2.9834557357650127e+01 2.1172604212313008e+01 3.0029785793170007e+01 0 0 0
1593 2 1 0.0000000000000000e+00 2.7840374686728126e+01 1.9798589253718944e+01 3.0001938806411175e+01 0 0 0
226 1 1 0.0000000000000000e+00 2.5571617138461654e+01 2.0842371115657784e+01 2.9964339643931012e+01 0 0 0
223 1 1 0.0000000000000000e+00 2.4878021504608537e+01 1.9570213163914740e+01 3.0021284170500863e+01 0 0 0
1411 2 1 0.0000000000000000e+00 2.7199121288220098e+01 1.8567470053822444e+01 3.0012271716085834e+01 0 0 0
1412 2 1 0.0000000000000000e+00 2.6988592090039724e+01 2.0911418382778105e+01 2.9963281889049824e+01 0 0 0
1592 2 1 0.0000000000000000e+00 2.9251434934208906e+01 1.9904292772065652e+01 3.0079081171537624e+01 0 0 0
225 1 1 0.0000000000000000e+00 2.5767377010361688e+01 1.8459142398499257e+01 2.9941662625345089e+01 0 0 0
278 1 1 0.0000000000000000e+00 2.4736832172349811e+01 2.2011451404597189e+01 2.9969544872907861e+01 0 0 0
1595 2 1 0.0000000000000000e+00 2.7621317869555774e+01 2.2214927260519371e+01 2.9886363959163305e+01 0 0 0
1594 2 1 0.0000000000000000e+00 2.9051083658082327e+01 2.2319561859402803e+01 2.9937265775345224e+01 0 0 0
1539 2 1 0.0000000000000000e+00 3.0085842897228783e+01 1.8673951947319242e+01 3.0037856064133834e+01 0 0 0
283 1 1 0.0000000000000000e+00 2.5383783385950753e+01 2.3263669975049940e+01 2.9807105081478809e+01 0 0 0
1469 2 1 0.0000000000000000e+00 2.6795182577580707e+01 2.3367873969746970e+01 2.9835925025111052e+01 0 0 0
1597 2 1 0.0000000000000000e+00 2.9667233374893417e+01 2.3654903037017679e+01 2.9908044762552166e+01 0 0 0
418 1 1 0.0000000000000000e+00 2.8614066019894624e+00 2.5281019987690957e+01 3.0155467817663350e+01 0 0 0
421 1 1 0.0000000000000000e+00 3.4817050846814368e+00 2.6566677219793473e+01 3.0051066433107181e+01 0 0 0
425 1 1 0.0000000000000000e+00 4.9335326613720714e+00 2.6716526732639107e+01 3.0124398539977463e+01 0 0 0
471 1 1 0.0000000000000000e+00 6.1132190643996842e-01 2.6325492762545434e+01 3.0036499785804793e+01 0 0 0
420 1 1 0.0000000000000000e+00 3.7123942564275718e+00 2.4082245192890195e+01 3.0278834154847260e+01 0 0 0
419 1 1 0.0000000000000000e+00 1.4419105744370144e+00 2.5156746672868408e+01 3.0170263460170887e+01 0 0 0
417 1 1 0.0000000000000000e+00 8.4529131556366965e-01 2.3881011505658172e+01 3.0280908631202891e+01 0 0 0
422 1 1 0.0000000000000000e+00 5.1024510215012553e+00 2.4213296654935650e+01 3.0255792060386327e+01 0 0 0
473 1 1 0.0000000000000000e+00 1.2128086690909632e+00 2.7630758043727827e+01 2.9943621134612883e+01 0 0 0
472 1 1 0.0000000000000000e+00 2.6265603821425865e+00 2.7719976789466649e+01 2.9842208877629162e+01 0 0 0
427 1 1 0.0000000000000000e+00 5.5201692075396664e+00 2.7990135442633392e+01 2.9997409348519881e+01 0 0 0
424 1 1 0.0000000000000000e+00 5.7145903429522891e+00 2.5497727078943896e+01 3.0133024241315667e+01 0 0 0
474 1 1 0.0000000000000000e+00 4.0170813108257247e-01 2.8824009594417205e+01 2.9892800235033675e+01 0 0 0
477 1 1 0.0000000000000000e+00 3.2762830672375634e+00 2.8979123156873833e+01 2.9739754295202189e+01 0 0 0
479 1 1 0.0000000000000000e+00 4.7101205329964273e+00 2.9163967364228199e+01 2.9821575086536853e+01 0 0 0
423 1 1 0.0000000000000000e+00 7.1482405915904144e+00 2.5588172757450412e+01 3.0040851159362731e+01 0 0 0
377 1 1 0.0000000000000000e+00 1.0068773969010579e+01 2.5830923229740499e+01 2.9951163908931761e+01 0 0 0
428 1 1 0.0000000000000000e+00 7.7903654603445363e+00 2.6912049642307228e+01 2.9941813457026626e+01 0 0 0
430 1 1 0.0000000000000000e+00 9.1877446970356651e+00 2.7011858961137168e+01 2.9872589961694175e+01 0 0 0