LAMMPS data file via write_data, version 3 Mar 2020, timestep = 500018

7104 atoms
3 atom types

9.8792746680040011e-02 9.0899420243317380e+01 xlo xhi
1.3074161173113197e-01 1.0488363990226847e+02 ylo yhi
-5.0665368673000003e+01 5.0065368673000009e+01 zlo zhi

Masses

1 12.0112
2 14.0067
3 12.0112

Atoms # full

3908 4 1 0.0000000000000000e+00 4.0322956227079816e+00 4.4184352879225015e+00 2.6571919925596134e+01 0 1 0
3906 4 1 0.0000000000000000e+00 2.6136250085488477e+00 4.2791670384237603e+00 2.6655471846116569e+01 0 1 0
3853 4 1 0.0000000000000000e+00 4.8937973584060233e+00 3.2070098343413451e+00 2.6439798177358938e+01 0 1 0
3901 4 1 0.0000000000000000e+00 2.0435989248821658e+00 2.9857217668473490e+00 2.6698406782156198e+01 0 1 0
3851 4 1 0.0000000000000000e+00 4.2873344034107115e+00 1.9234857470816165e+00 2.6482264712223227e+01 0 1 0
3847 4 1 0.0000000000000000e+00 2.8302740268606130e+00 1.7909393097445740e+00 2.6719242627903839e+01 0 1 0
3902 4 1 0.0000000000000000e+00 5.5858549308297700e-01 2.9095475365370431e+00 2.6862334884056551e+01 0 1 0
3318 3 2 0.0000000000000000e+00 7.4814433256914215e-01 1.8899472720289188e+00 3.0242610016324917e+01 1 0 0
957 1 3 0.0000000000000000e+00 3.0603732564912329e+00 2.9425226826180140e+00 3.0243664123090113e+01 0 0 0
954 1 3 0.0000000000000000e+00 2.8012276020369509e+00 4.8528891597983681e-01 3.0212178838219828e+01 0 0 0
953 1 3 0.0000000000000000e+00 1.5806288783670632e+00 3.0741026240818847e+00 3.0205646049898220e+01 0 0 0
3360 3 3 0.0000000000000000e+00 9.8956758234959208e-01 4.3625875039888760e+00 3.0265821381971634e+01 1 0 0
956 1 2 0.0000000000000000e+00 3.6477578827753545e+00 1.6629756514418637e+00 3.0088452845784389e+01 0 0 0
952 1 3 0.0000000000000000e+00 1.3715380202976288e+00 5.9570577921205270e-01 3.0325298124131763e+01 0 0 0
3850 4 1 0.0000000000000000e+00 5.0798206327576700e+00 7.2208877294721785e-01 2.6531436907158636e+01 0 1 0
955 1 3 0.0000000000000000e+00 5.0731857117857606e+00 1.5244449024178353e+00 2.9954552535464941e+01 0 0 0
958 1 2 0.0000000000000000e+00 5.3418930179417332e+00 3.9847287464811636e+00 3.0232688951856048e+01 0 0 0
960 1 3 0.0000000000000000e+00 5.9244706768651225e+00 2.6782973447657210e+00 2.9979104083811407e+01 0 0 0
959 1 3 0.0000000000000000e+00 3.9572451829979887e+00 4.1016119752976588e+00 3.0323582535737572e+01 0 0 0
3844 4 1 0.0000000000000000e+00 2.1838255156855730e+00 4.4229069569207252e-01 2.6831677384023294e+01 0 1 0
3845 4 1 0.0000000000000000e+00 7.8011136154925198e-01 4.1939172734642133e-01 2.6947948797273597e+01 0 1 0
915 1 3 0.0000000000000000e+00 5.6870091626055199e+00 2.2595533539633003e-01 2.9889281921423319e+01 0 0 0
961 1 3 0.0000000000000000e+00 6.1223544675683126e+00 5.2334160953934035e+00 3.0218747732112419e+01 0 0 0
3852 4 1 0.0000000000000000e+00 6.2913517122259810e+00 3.3801456449389833e+00 2.6389432363335061e+01 0 1 0
3802 4 1 0.0000000000000000e+00 9.3945591068045715e+00 1.0860828520732155e+00 2.6438270512126707e+01 0 1 0
3862 4 1 0.0000000000000000e+00 1.1224369470892970e+01 5.0420788520072453e+00 2.6574150058129476e+01 0 1 0
3859 4 1 0.0000000000000000e+00 8.3665130106609222e+00 4.7649133128880203e+00 2.6529582602389354e+01 0 1 0
3855 4 1 0.0000000000000000e+00 6.9438184012212849e+00 4.6556148793143608e+00 2.6459754973199423e+01 0 1 0
3857 4 1 0.0000000000000000e+00 1.0687829459937692e+01 3.7060654333132375e+00 2.6516424242451819e+01 0 1 0
3858 4 1 0.0000000000000000e+00 9.1971869060379543e+00 3.6114787699833277e+00 2.6390591154424271e+01 0 1 0
3804 4 1 0.0000000000000000e+00 1.1513162198684590e+01 2.5529440455668553e+00 2.6578154321873456e+01 0 1 0
3856 4 1 0.0000000000000000e+00 8.6049580590350168e+00 2.2628848141691020e+00 2.6356383816415033e+01 0 1 0
3854 4 1 0.0000000000000000e+00 7.1225784920838278e+00 2.1623655202800829e+00 2.6342481020592629e+01 0 1 0
3801 4 1 0.0000000000000000e+00 1.0871022125297433e+01 1.2715163572862336e+00 2.6563466664204043e+01 0 1 0
3849 4 1 0.0000000000000000e+00 6.5440252001121113e+00 8.2661677129335398e-01 2.6483392856118613e+01 0 1 0
964 1 2 0.0000000000000000e+00 8.1409368036425871e+00 3.7776737443896544e+00 3.0025870887962412e+01 0 0 0
963 1 3 0.0000000000000000e+00 9.5997012121737963e+00 3.6611109430071567e+00 3.0065047884482652e+01 0 0 0
923 1 3 0.0000000000000000e+00 1.0231749367457610e+01 2.3633410195936051e+00 3.0054078272170827e+01 0 0 0
920 1 2 0.0000000000000000e+00 9.3777601370192123e+00 1.2115142468968088e+00 3.0061044290396950e+01 0 0 0
962 1 3 0.0000000000000000e+00 7.3903885811519290e+00 2.5973101858350724e+00 2.9923380844859309e+01 0 0 0
921 1 3 0.0000000000000000e+00 7.9532772801112319e+00 1.2647973543293998e+00 2.9946113331256029e+01 0 0 0
927 1 3 0.0000000000000000e+00 1.1612599800351136e+01 2.2370919479422864e+00 3.0068201614595012e+01 0 0 0
970 1 3 0.0000000000000000e+00 1.1805784314413508e+01 4.7400761938965603e+00 3.0053157218712812e+01 0 0 0
968 1 3 0.0000000000000000e+00 1.0365251690593578e+01 4.8673420489604338e+00 3.0152443333619047e+01 0 0 0
965 1 3 0.0000000000000000e+00 7.5424761164776735e+00 5.0805966260802986e+00 3.0140318692773178e+01 0 0 0
3805 4 1 0.0000000000000000e+00 1.3112943422182045e+01 2.0072757258622179e-01 2.6599485211303133e+01 0 1 0
3864 4 1 0.0000000000000000e+00 1.2646036739509308e+01 5.1608264222241251e+00 2.6529502785772394e+01 0 1 0
3815 4 1 0.0000000000000000e+00 1.7754437174792329e+01 4.3750350088698911e+00 2.6682625007886884e+01 0 1 0
3809 4 1 0.0000000000000000e+00 1.4920983731739053e+01 4.1259810772481149e+00 2.6521669400109118e+01 0 1 0
3810 4 1 0.0000000000000000e+00 1.3503727329900707e+01 3.9846792574477488e+00 2.6563758812857046e+01 0 1 0
3813 4 1 0.0000000000000000e+00 1.7155763491136259e+01 3.0853235484651873e+00 2.6651372850773313e+01 0 1 0
3811 4 1 0.0000000000000000e+00 1.5742181411813720e+01 2.9237773772981401e+00 2.6640760369032421e+01 0 1 0
3808 4 1 0.0000000000000000e+00 1.2928308752389361e+01 2.6749512067993066e+00 2.6586813005818428e+01 0 1 0
3760 4 1 0.0000000000000000e+00 1.8000864595223447e+01 1.9163372009677697e+00 2.6784184803159562e+01 0 1 0
3806 4 1 0.0000000000000000e+00 1.5127941093521395e+01 1.6387282923652344e+00 2.6733489278966942e+01 0 1 0
3807 4 1 0.0000000000000000e+00 1.3683918439288744e+01 1.4711514731455866e+00 2.6670486772120981e+01 0 1 0
889 1 2 0.0000000000000000e+00 1.7961139937201562e+01 4.9910800051695092e-01 3.0510026113582470e+01 0 0 0
926 1 2 0.0000000000000000e+00 1.2226361953799858e+01 9.2145038293704840e-01 3.0005515622073673e+01 0 0 0
929 1 3 0.0000000000000000e+00 1.2442470068123519e+01 3.4213280017316938e+00 3.0056208921164028e+01 0 0 0
925 1 3 0.0000000000000000e+00 1.3698345510019223e+01 8.5701090769717603e-01 3.0171122243240319e+01 0 0 0
928 1 2 0.0000000000000000e+00 1.3896183386782100e+01 3.3610044007970670e+00 3.0040535096304467e+01 0 0 0
932 1 3 0.0000000000000000e+00 1.5985257738423840e+01 1.9017297021389699e+00 3.0300526858757351e+01 0 0 0
934 1 2 0.0000000000000000e+00 1.6731380014244714e+01 3.1035451189104366e+00 3.0289487116086960e+01 0 0 0
935 1 3 0.0000000000000000e+00 1.6118496725374893e+01 4.3835934500465239e+00 3.0161970651377132e+01 0 0 0
930 1 3 0.0000000000000000e+00 1.4521258587954325e+01 2.0615281180978049e+00 3.0134097035315847e+01 0 0 0
890 1 3 0.0000000000000000e+00 1.6532929439337046e+01 5.7383133077097925e-01 3.0416246716609606e+01 0 0 0
931 1 3 0.0000000000000000e+00 1.4689669586231679e+01 4.5433318188438276e+00 3.0146742390060965e+01 0 0 0
933 1 3 0.0000000000000000e+00 1.8138729447842902e+01 2.9703552184665551e+00 3.0409461746698952e+01 0 0 0
3758 4 1 0.0000000000000000e+00 1.7431063383919742e+01 5.7523606643790415e-01 2.6862326989760504e+01 0 1 0
3754 4 1 0.0000000000000000e+00 1.5966926400240544e+01 4.2001100712282974e-01 2.6805783558642403e+01 0 1 0
3761 4 1 0.0000000000000000e+00 2.0228996419395731e+01 8.3761997967750457e-01 2.7179721080593296e+01 0 1 0
3814 4 1 0.0000000000000000e+00 1.9218558060815919e+01 4.5145118120369050e+00 2.6802562229252899e+01 0 1 0
3767 4 1 0.0000000000000000e+00 2.3506839152756353e+01 4.8143760367238482e+00 2.6868593271979805e+01 0 1 0
3768 4 1 0.0000000000000000e+00 2.2051976453492760e+01 4.7498158482196651e+00 2.6929111879315457e+01 0 1 0
3766 4 1 0.0000000000000000e+00 2.1414641766747078e+01 3.4287740779144791e+00 2.7038156691908796e+01 0 1 0
3762 4 1 0.0000000000000000e+00 1.9983164210071873e+01 3.3248996968322753e+00 2.6878570815269995e+01 0 1 0
3764 4 1 0.0000000000000000e+00 2.3646709281412768e+01 2.3394876086455985e+00 2.6934084237281510e+01 0 1 0
3765 4 1 0.0000000000000000e+00 2.2224789553005309e+01 2.2229807688233927e+00 2.7018767818775416e+01 0 1 0
3759 4 1 0.0000000000000000e+00 1.9437289941725069e+01 2.0514656869982941e+00 2.6982618775888000e+01 0 1 0
3763 4 1 0.0000000000000000e+00 2.1639412015835195e+01 9.4927162878775506e-01 2.7162913195796833e+01 0 1 0
895 1 2 0.0000000000000000e+00 2.0812614797753046e+01 2.6933411484926739e-01 3.0627580299358755e+01 0 0 0
896 1 3 0.0000000000000000e+00 2.0191244728369469e+01 1.5077030925708872e+00 3.0510280735868108e+01 0 0 0
899 1 3 0.0000000000000000e+00 2.3068700790957372e+01 1.3266521690483408e+00 3.0550280651364929e+01 0 0 0
653 1 3 0.0000000000000000e+00 2.3261971848816167e+01 3.7423925367599287e+00 3.0333417351737836e+01 0 0 0
897 1 2 0.0000000000000000e+00 2.2476318993149771e+01 2.5922860558009839e+00 3.0451935349160536e+01 0 0 0
898 1 3 0.0000000000000000e+00 2.1041294062484237e+01 2.6972136168675966e+00 3.0388370826592222e+01 0 0 0
892 1 3 0.0000000000000000e+00 1.8725456772498589e+01 1.6627846044279464e+00 3.0475418598730130e+01 0 0 0
938 1 3 0.0000000000000000e+00 1.8988564871345261e+01 4.1564329797403463e+00 3.0186033181872872e+01 0 0 0
940 1 3 0.0000000000000000e+00 2.0444563474085491e+01 3.9827469981057564e+00 3.0248485827246682e+01 0 0 0
941 1 3 0.0000000000000000e+00 2.2612378871824053e+01 5.0791777436783976e+00 3.0142218009115368e+01 0 0 0
942 1 2 0.0000000000000000e+00 2.1204362825715375e+01 5.1930335430415537e+00 3.0113676556289320e+01 0 0 0
894 1 3 0.0000000000000000e+00 2.2249081773853899e+01 1.8515808730936092e-01 3.0692139276747184e+01 0 0 0
3769 4 1 0.0000000000000000e+00 2.4302856207873734e+01 3.6190609767423978e+00 2.6919248612099025e+01 0 1 0
3713 4 1 0.0000000000000000e+00 2.4477473610124939e+01 1.1229744792480676e+00 2.7109363574665252e+01 0 1 0
3772 4 1 0.0000000000000000e+00 2.7830603113101287e+01 5.1505058290504397e+00 2.7087009366708003e+01 0 1 0
3773 4 1 0.0000000000000000e+00 2.6352735045159726e+01 5.0207047788498382e+00 2.6942119055656633e+01 0 1 0
5087 5 1 0.0000000000000000e+00 3.0068806903197689e+01 4.1617774292372971e+00 2.7198523905281505e+01 0 1 0
3721 4 1 0.0000000000000000e+00 2.8671283401084242e+01 3.9915192993472406e+00 2.7155960499712620e+01 0 1 0
3771 4 1 0.0000000000000000e+00 2.5758690931019050e+01 3.7035842036661109e+00 2.6946254643292207e+01 0 1 0
3718 4 1 0.0000000000000000e+00 2.8027948634183382e+01 2.6371335697042588e+00 2.7084391472361162e+01 0 1 0
3719 4 1 0.0000000000000000e+00 2.6601574875220223e+01 2.5426509267822226e+00 2.7006763969411367e+01 0 1 0
5084 5 1 0.0000000000000000e+00 3.0278836688412774e+01 1.6217771849305704e+00 2.7064880105632781e+01 0 1 0
3720 4 1 0.0000000000000000e+00 2.8859401289567369e+01 1.5059662727388552e+00 2.7089058911121597e+01 0 1 0
3717 4 1 0.0000000000000000e+00 2.5924176004640767e+01 1.3015546226764485e+00 2.7158024035586863e+01 0 1 0
657 1 3 0.0000000000000000e+00 2.4729143511191857e+01 3.6376902614210112e+00 3.0482769171457619e+01 0 0 0
654 1 3 0.0000000000000000e+00 2.4472303237204439e+01 1.2094020240949386e+00 3.0458001608324281e+01 0 0 0
656 1 2 0.0000000000000000e+00 2.5350539306961412e+01 2.3652695714871457e+00 3.0575963270301401e+01 0 0 0
655 1 3 0.0000000000000000e+00 2.6793431256596321e+01 2.2058899344525096e+00 3.0467091969556463e+01 0 0 0
652 1 3 0.0000000000000000e+00 2.7378428122847819e+01 9.1014087757014095e-01 3.0473997420673996e+01 0 0 0
949 1 3 0.0000000000000000e+00 2.8793689484585570e+01 7.5655466448070230e-01 3.0526024179968957e+01 0 0 0
658 1 2 0.0000000000000000e+00 2.6974984190179409e+01 4.7082105136088792e+00 3.0362133417736786e+01 0 0 0
659 1 3 0.0000000000000000e+00 2.5524506910545551e+01 4.8482510661303939e+00 3.0351042594428677e+01 0 0 0
660 1 3 0.0000000000000000e+00 2.7619183478556746e+01 3.3801698194053862e+00 3.0442894063577100e+01 0 0 0
993 1 2 0.0000000000000000e+00 2.9828038163577691e+01 4.4516635850205191e+00 3.0628410295478929e+01 0 0 0
991 1 3 0.0000000000000000e+00 2.9057867001269020e+01 3.2864249030041299e+00 3.0558113129147912e+01 0 0 0
951 1 3 0.0000000000000000e+00 2.9671541716387601e+01 1.9459850329945678e+00 3.0610272458873354e+01 0 0 0
3715 4 1 0.0000000000000000e+00 2.8189022171038030e+01 2.4345984518427549e-01 2.7166967826661846e+01 0 1 0
3905 4 1 0.0000000000000000e+00 3.6742443153646254e-01 5.3821238259678541e+00 2.6798530915637443e+01 0 1 0
3904 4 1 0.0000000000000000e+00 1.8129867063570331e+00 5.4635048421885504e+00 2.6663999320322745e+01 0 1 0
3910 4 1 0.0000000000000000e+00 4.7006699408502968e+00 5.7144291970057930e+00 2.6651140719165809e+01 0 1 0
3909 4 1 0.0000000000000000e+00 6.1402556739715219e+00 5.8405070973113160e+00 2.6697741101644581e+01 0 1 0
3907 4 1 0.0000000000000000e+00 2.4445349164754937e+00 6.7527493052204388e+00 2.6772581653789956e+01 0 1 0
3911 4 1 0.0000000000000000e+00 3.8659834621009352e+00 6.9156110929875956e+00 2.6795041479470825e+01 0 1 0
3960 4 1 0.0000000000000000e+00 1.6457571706745531e+00 7.9552562053689977e+00 2.6833890846724657e+01 0 1 0
3913 4 1 0.0000000000000000e+00 4.5159089772521295e+00 8.1903389175026877e+00 2.6723359801464923e+01 0 1 0
3912 4 1 0.0000000000000000e+00 5.9233505284876431e+00 8.2924678632253190e+00 2.6718078648905134e+01 0 1 0
3964 4 1 0.0000000000000000e+00 2.2667588893101658e+00 9.2251637876940844e+00 2.6921765490264278e+01 0 1 0
3966 4 1 0.0000000000000000e+00 3.6725558729551651e+00 9.3903873629271377e+00 2.6796761475233794e+01 0 1 0
3962 4 1 0.0000000000000000e+00 1.3820548039866325e+00 1.0421754398408844e+01 2.7054950200573771e+01 0 1 0
1000 1 3 0.0000000000000000e+00 5.4813239255745998e+00 6.5111076612727796e+00 3.0241305618665805e+01 0 0 0
997 1 3 0.0000000000000000e+00 1.7912709731495504e+00 5.5346526155484037e+00 3.0337011130143139e+01 0 0 0
999 1 3 0.0000000000000000e+00 3.2682986261953690e+00 5.3945582767759657e+00 3.0389722298814490e+01 0 0 0
1002 1 3 0.0000000000000000e+00 3.4330822518944579e+00 7.8795755677927009e+00 3.0324655017830480e+01 0 0 0
1001 1 2 0.0000000000000000e+00 4.0496187051260080e+00 6.6201610639326409e+00 3.0343848321502648e+01 0 0 0
995 1 2 0.0000000000000000e+00 1.2078786570819875e+00 6.8494375010809545e+00 3.0378400226896588e+01 0 0 0
1004 1 3 0.0000000000000000e+00 4.2338631051232776e+00 9.0623450960695155e+00 3.0208553946155035e+01 0 0 0
998 1 3 0.0000000000000000e+00 1.9973251312037350e+00 8.0561314398603727e+00 3.0369047818712914e+01 0 0 0
1036 1 3 0.0000000000000000e+00 1.3702861650645823e+00 9.3326665059909892e+00 3.0373989009123932e+01 0 0 0
1003 1 2 0.0000000000000000e+00 5.6667501112426919e+00 8.9596368306638521e+00 3.0147184806301482e+01 0 0 0
1043 1 3 0.0000000000000000e+00 3.6193310507704974e+00 1.0376892089778940e+01 3.0281967607374881e+01 0 0 0
1041 1 3 0.0000000000000000e+00 2.1755744525218725e+00 1.0539457182552201e+01 3.0361506656839211e+01 0 0 0
3961 4 1 0.0000000000000000e+00 1.9995110704189334e-01 7.8783306069043109e+00 2.6957825133081812e+01 0 1 0
3861 4 1 0.0000000000000000e+00 8.9732835557724346e+00 6.0691531589789358e+00 2.6655330090744798e+01 0 1 0
3860 4 1 0.0000000000000000e+00 1.0410498409806497e+01 6.2189032104145241e+00 2.6707872342183165e+01 0 1 0
3915 4 1 0.0000000000000000e+00 6.5214194926886933e+00 9.6338194177814973e+00 2.6760226911639293e+01 0 1 0
3914 4 1 0.0000000000000000e+00 6.7340983387797735e+00 7.1272194610097444e+00 2.6789431975580086e+01 0 1 0
3916 4 1 0.0000000000000000e+00 8.1248356582980321e+00 7.2415281567738043e+00 2.6765147026907741e+01 0 1 0
3863 4 1 0.0000000000000000e+00 1.1086026749772975e+01 7.5130014451678591e+00 2.6693218222957142e+01 0 1 0
3918 4 1 0.0000000000000000e+00 8.7630106758272053e+00 8.5692861241793903e+00 2.6820300103073706e+01 0 1 0
3917 4 1 0.0000000000000000e+00 1.0202354860209301e+01 8.6614775093028111e+00 2.6771365691466897e+01 0 1 0
3919 4 1 0.0000000000000000e+00 7.9687118863826614e+00 9.7433786230070183e+00 2.6795487913251932e+01 0 1 0
3922 4 1 0.0000000000000000e+00 1.0776951490990433e+01 9.9861725262208765e+00 2.6787445101185796e+01 0 1 0
969 1 3 0.0000000000000000e+00 1.0603442738722366e+01 7.3720919981650459e+00 3.0213257645985493e+01 0 0 0
966 1 2 0.0000000000000000e+00 9.7822564080822065e+00 6.1815673774814002e+00 3.0180386196978105e+01 0 0 0
1005 1 3 0.0000000000000000e+00 6.2852161011281655e+00 7.6887938245068792e+00 3.0170243089286629e+01 0 0 0
1007 1 3 0.0000000000000000e+00 7.7091220363553230e+00 7.5790039601456574e+00 3.0156117566257308e+01 0 0 0
967 1 3 0.0000000000000000e+00 8.3423583545196909e+00 6.2508505318025112e+00 3.0137663128566487e+01 0 0 0
1008 1 3 0.0000000000000000e+00 9.9743986279736667e+00 8.6627062567451727e+00 3.0329234624564791e+01 0 0 0
1009 1 2 0.0000000000000000e+00 8.5403507724930883e+00 8.8006155609996117e+00 3.0227726384645351e+01 0 0 0
973 1 3 0.0000000000000000e+00 1.2035552121645498e+01 7.2189357457937495e+00 3.0216005122139691e+01 0 0 0
1010 1 3 0.0000000000000000e+00 7.9210986271764083e+00 1.0041462905826519e+01 3.0284874258238872e+01 0 0 0
1013 1 3 0.0000000000000000e+00 1.0849688460934884e+01 9.8129782582071563e+00 3.0376753719281709e+01 0 0 0
1006 1 3 0.0000000000000000e+00 6.4791730686411064e+00 1.0141235068837590e+01 3.0255543496198257e+01 0 0 0
3812 4 1 0.0000000000000000e+00 1.5512471154668003e+01 5.4099556996377567e+00 2.6470537055280289e+01 0 1 0
3816 4 1 0.0000000000000000e+00 1.6951220009107747e+01 5.5318621931625795e+00 2.6566142227037886e+01 0 1 0
3924 4 1 0.0000000000000000e+00 1.2237808701349948e+01 1.0126430422579858e+01 2.6740315727225152e+01 0 1 0
3867 4 1 0.0000000000000000e+00 1.2466725663133657e+01 7.6565291260133037e+00 2.6679619268858872e+01 0 1 0
3866 4 1 0.0000000000000000e+00 1.3259872237661771e+01 6.4503894124408916e+00 2.6574877706904033e+01 0 1 0
3865 4 1 0.0000000000000000e+00 1.4655171857623984e+01 6.6208961693394706e+00 2.6579722989572801e+01 0 1 0
3818 4 1 0.0000000000000000e+00 1.7572332434905203e+01 6.8047388603313177e+00 2.6567089640867991e+01 0 1 0
3870 4 1 0.0000000000000000e+00 1.5336204556261062e+01 7.9046569820257764e+00 2.6631879072571323e+01 0 1 0
3872 4 1 0.0000000000000000e+00 1.6763418865948704e+01 7.9978950417211072e+00 2.6656727666740451e+01 0 1 0
3869 4 1 0.0000000000000000e+00 1.3094969210036380e+01 8.9477084652468886e+00 2.6703307858011513e+01 0 1 0
3868 4 1 0.0000000000000000e+00 1.4530827479845529e+01 9.0975386426095035e+00 2.6644576762935515e+01 0 1 0
3874 4 1 0.0000000000000000e+00 1.7349712726328271e+01 9.3102953947794909e+00 2.6808442466602429e+01 0 1 0
3871 4 1 0.0000000000000000e+00 1.5086323294821058e+01 1.0371130532877382e+01 2.6759642901170380e+01 0 1 0
3875 4 1 0.0000000000000000e+00 1.6497066983647031e+01 1.0467841830873562e+01 2.6894326191894621e+01 0 1 0
972 1 2 0.0000000000000000e+00 1.2635091247352394e+01 5.9293963043258184e+00 3.0208620488834725e+01 0 0 0
975 1 3 0.0000000000000000e+00 1.2857182802614773e+01 8.3943561661613213e+00 3.0239936651892791e+01 0 0 0
978 1 3 0.0000000000000000e+00 1.6341177559604844e+01 6.8641331476930612e+00 3.0251822274624516e+01 0 0 0
976 1 3 0.0000000000000000e+00 1.4882851748978878e+01 7.0192981907969543e+00 3.0267417426809899e+01 0 0 0
971 1 3 0.0000000000000000e+00 1.4065377314715995e+01 5.7959763143581124e+00 3.0216811659772688e+01 0 0 0
937 1 3 0.0000000000000000e+00 1.6915165238422965e+01 5.5580403047658615e+00 3.0166277577325573e+01 0 0 0
981 1 3 0.0000000000000000e+00 1.6485878635964980e+01 9.3367068034207943e+00 3.0297054725525001e+01 0 0 0
977 1 3 0.0000000000000000e+00 1.5075354552219467e+01 9.4669980889120140e+00 3.0227184371085642e+01 0 0 0
974 1 2 0.0000000000000000e+00 1.4275058754735694e+01 8.2836466909404063e+00 3.0208486026498662e+01 0 0 0
980 1 2 0.0000000000000000e+00 1.7138923567453411e+01 8.0058032543676667e+00 3.0294309411757254e+01 0 0 0
1015 1 3 0.0000000000000000e+00 1.2247510977028858e+01 9.7199619474391881e+00 3.0268729811190624e+01 0 0 0
983 1 3 0.0000000000000000e+00 1.7308959715761254e+01 1.0482493884322661e+01 3.0271120336480905e+01 0 0 0
3819 4 1 0.0000000000000000e+00 1.9802553937751643e+01 5.8256522987786346e+00 2.6769593518430383e+01 0 1 0
3821 4 1 0.0000000000000000e+00 2.1307316800613062e+01 5.9395214297561427e+00 2.6821051011980174e+01 0 1 0
3770 4 1 0.0000000000000000e+00 2.4132009287197366e+01 6.0856628621624909e+00 2.6737032818288000e+01 0 1 0
3817 4 1 0.0000000000000000e+00 1.9023237584048282e+01 6.9801013120507029e+00 2.6625461962014626e+01 0 1 0
3823 4 1 0.0000000000000000e+00 2.1908780735112536e+01 7.2390322490656409e+00 2.6623974136302806e+01 0 1 0
3822 4 1 0.0000000000000000e+00 2.3349184199942705e+01 7.2876957771118018e+00 2.6656500815638097e+01 0 1 0
3873 4 1 0.0000000000000000e+00 1.8815652470640032e+01 9.4556809282431526e+00 2.6687278633865347e+01 0 1 0
3820 4 1 0.0000000000000000e+00 1.9645442562980456e+01 8.2789436120127142e+00 2.6549623603773483e+01 0 1 0
3824 4 1 0.0000000000000000e+00 2.1069981551283558e+01 8.4212106748135493e+00 2.6432390780033018e+01 0 1 0
3827 4 1 0.0000000000000000e+00 2.3926974199257071e+01 8.6088364076450308e+00 2.6756428593692732e+01 0 1 0
3826 4 1 0.0000000000000000e+00 2.1697761636467121e+01 9.6768216708150483e+00 2.6455355292594078e+01 0 1 0
3825 4 1 0.0000000000000000e+00 2.3125706977441837e+01 9.8056986091797995e+00 2.6623685961623053e+01 0 1 0
936 1 2 0.0000000000000000e+00 1.8348224643778085e+01 5.4478785925985695e+00 3.0035010435588092e+01 0 0 0
939 1 3 0.0000000000000000e+00 1.9211274874955510e+01 6.5941765720580481e+00 3.0035714571571916e+01 0 0 0
943 1 3 0.0000000000000000e+00 2.0633070908046509e+01 6.5055630936312312e+00 2.9978982665126409e+01 0 0 0
979 1 3 0.0000000000000000e+00 1.8552457865259051e+01 7.9201686543208076e+00 3.0138370870493247e+01 0 0 0
988 1 2 0.0000000000000000e+00 2.1674317311584726e+01 1.0149868981895136e+01 2.9904831472115816e+01 0 0 0
986 1 3 0.0000000000000000e+00 2.0850241283576359e+01 9.0341114402455638e+00 3.0008762269640826e+01 0 0 0
945 1 3 0.0000000000000000e+00 2.1435896189815697e+01 7.7298305457925380e+00 2.9976402205647858e+01 0 0 0
984 1 3 0.0000000000000000e+00 1.9385559419376804e+01 9.1150860791081225e+00 3.0162855808055042e+01 0 0 0
982 1 2 0.0000000000000000e+00 1.8767350220659157e+01 1.0399095102148513e+01 3.0127498509767491e+01 0 0 0
662 1 3 0.0000000000000000e+00 2.3446393617071308e+01 6.2819608375244842e+00 3.0104998243675908e+01 0 0 0
944 1 2 0.0000000000000000e+00 2.2848944829114274e+01 7.5643110617393843e+00 2.9986831871811617e+01 0 0 0
987 1 3 0.0000000000000000e+00 2.3079423110103903e+01 1.0012921816163660e+01 3.0022693346508177e+01 0 0 0
663 1 3 0.0000000000000000e+00 2.3709977573980556e+01 8.7165822622689859e+00 2.9938750036038101e+01 0 0 0
1037 1 2 0.0000000000000000e+00 3.0199976041180701e+01 9.4155260805460177e+00 3.0548971218756037e+01 0 0 0
3774 4 1 0.0000000000000000e+00 2.5551885101177785e+01 6.2645027159430029e+00 2.6884085281605422e+01 0 1 0
3777 4 1 0.0000000000000000e+00 2.8406042856972093e+01 6.4906339687199655e+00 2.7102042258211384e+01 0 1 0
4963 5 1 0.0000000000000000e+00 2.9843576944363754e+01 6.6372793192672486e+00 2.7186281492803190e+01 0 1 0
3776 4 1 0.0000000000000000e+00 2.6186045541263930e+01 7.5559162774153634e+00 2.6891181748259413e+01 0 1 0
3775 4 1 0.0000000000000000e+00 2.7643799327787111e+01 7.6572393759245108e+00 2.6987756756515850e+01 0 1 0
3829 4 1 0.0000000000000000e+00 2.5356166536153161e+01 8.6830336341495542e+00 2.6891755829254578e+01 0 1 0
3778 4 1 0.0000000000000000e+00 2.8236669485221096e+01 8.9493187314822435e+00 2.7059375804759739e+01 0 1 0
4964 5 1 0.0000000000000000e+00 2.9668980106131848e+01 9.1194933193605383e+00 2.7199357499716953e+01 0 1 0
3831 4 1 0.0000000000000000e+00 2.5952347016193293e+01 9.9995883167053243e+00 2.6941206120413938e+01 0 1 0
3830 4 1 0.0000000000000000e+00 2.7370834197029367e+01 1.0114178711224612e+01 2.7005159428126902e+01 0 1 0
5147 5 1 0.0000000000000000e+00 3.0264175551437663e+01 1.0396447468198168e+01 2.7370500329921697e+01 0 1 0
664 1 3 0.0000000000000000e+00 2.4887233809476800e+01 6.1425457894622468e+00 3.0243464473071896e+01 0 0 0
665 1 3 0.0000000000000000e+00 2.7099069303877517e+01 7.1168191182215512e+00 3.0400674384367946e+01 0 0 0
661 1 3 0.0000000000000000e+00 2.7709930003685567e+01 5.8709029271014188e+00 3.0389749387827621e+01 0 0 0
666 1 2 0.0000000000000000e+00 2.5684744666335735e+01 7.2916581322836800e+00 3.0234001734938857e+01 0 0 0
1035 1 3 0.0000000000000000e+00 2.9385838638679203e+01 8.2611413892062533e+00 3.0530798365791000e+01 0 0 0
996 1 3 0.0000000000000000e+00 2.9978131795987128e+01 6.9526873618547453e+00 3.0599486316885205e+01 0 0 0
994 1 3 0.0000000000000000e+00 2.9167865351211574e+01 5.7442206973733647e+00 3.0585559027111472e+01 0 0 0
667 1 3 0.0000000000000000e+00 2.5091833175875927e+01 8.6077669301505733e+00 3.0084619744396022e+01 0 0 0
670 1 3 0.0000000000000000e+00 2.7917461234215651e+01 8.3160502214392729e+00 3.0520656714051967e+01 0 0 0
668 1 2 0.0000000000000000e+00 2.7336357496791187e+01 9.6324146636508878e+00 3.0427023072028035e+01 0 0 0
669 1 3 0.0000000000000000e+00 2.5922094137816774e+01 9.7619266430100193e+00 3.0272988492311541e+01 0 0 0
3968 4 1 0.0000000000000000e+00 4.2632736365340627e+00 1.0697722242019886e+01 2.6841754368898606e+01 0 1 0
3967 4 1 0.0000000000000000e+00 5.7148289367420064e+00 1.0833423092234657e+01 2.6864517465718421e+01 0 1 0
3965 4 1 0.0000000000000000e+00 2.0233938304620414e+00 1.1717567519283755e+01 2.7138491127517455e+01 0 1 0
3969 4 1 0.0000000000000000e+00 3.4645133264379799e+00 1.1884115732901307e+01 2.6943111734043342e+01 0 1 0
4018 4 1 0.0000000000000000e+00 1.2018086471382214e+00 1.2905565098496943e+01 2.7251177320629651e+01 0 1 0
3971 4 1 0.0000000000000000e+00 4.0869896991515864e+00 1.3156550294714641e+01 2.6992400300032841e+01 0 1 0
3970 4 1 0.0000000000000000e+00 5.5270392056543240e+00 1.3315246783791704e+01 2.6926274222020183e+01 0 1 0
4021 4 1 0.0000000000000000e+00 1.8127073717631399e+00 1.4205320841615206e+01 2.7199024890840178e+01 0 1 0
4023 4 1 0.0000000000000000e+00 3.2227137874840244e+00 1.4325726510250480e+01 2.7111276219980297e+01 0 1 0
3973 4 1 0.0000000000000000e+00 6.1331408055880559e+00 1.4545003056371108e+01 2.6993808688316236e+01 0 1 0
4020 4 1 0.0000000000000000e+00 1.0493828872480822e+00 1.5408406274075611e+01 2.7323124748066689e+01 0 1 0
4025 4 1 0.0000000000000000e+00 3.8628035692774327e+00 1.5603117236109037e+01 2.7191088633144673e+01 0 1 0
4024 4 1 0.0000000000000000e+00 5.3158443087046239e+00 1.5735113123681311e+01 2.7069558847382567e+01 0 1 0
1080 1 3 0.0000000000000000e+00 1.7363355782588634e+00 1.4251812772418726e+01 3.0644983055021768e+01 0 0 0
3449 3 2 0.0000000000000000e+00 3.2589407584040286e-01 1.4360521579694097e+01 3.0901546999050893e+01 1 0 0
1046 1 3 0.0000000000000000e+00 3.7785559776351292e+00 1.2808954865698974e+01 3.0387182639663635e+01 0 0 0
1042 1 3 0.0000000000000000e+00 2.3381283229712269e+00 1.2934443966935934e+01 3.0492326149314565e+01 0 0 0
1039 1 2 0.0000000000000000e+00 1.5237978315499643e+00 1.1782064564147113e+01 3.0546147789062033e+01 0 0 0
1087 1 3 0.0000000000000000e+00 3.9939141510158938e+00 1.5320467315864121e+01 3.0470675676956020e+01 0 0 0
1048 1 3 0.0000000000000000e+00 4.6244815429852153e+00 1.4006577780918816e+01 3.0252601801276569e+01 0 0 0
1044 1 3 0.0000000000000000e+00 5.8607426096688693e+00 1.1447411896405784e+01 3.0289274180406110e+01 0 0 0
1045 1 2 0.0000000000000000e+00 4.3995340176325142e+00 1.1517827939956698e+01 3.0404520803908824e+01 0 0 0
1085 1 3 0.0000000000000000e+00 2.5787469298791832e+00 1.5448311056152923e+01 3.0638822343337708e+01 0 0 0
1047 1 2 0.0000000000000000e+00 6.0540560435716975e+00 1.3953709824129298e+01 3.0216573999683021e+01 0 0 0
711 1 3 0.0000000000000000e+00 2.6564761621889605e+01 2.5940910419945411e+01 3.1228155553132879e+01 0 0 0
3921 4 1 0.0000000000000000e+00 8.5311166660858575e+00 1.1092288388210122e+01 2.6836645757046085e+01 0 1 0
3920 4 1 0.0000000000000000e+00 9.9818085374038841e+00 1.1151196302323417e+01 2.6889793155369446e+01 0 1 0
3972 4 1 0.0000000000000000e+00 6.3124795615849418e+00 1.2106128315173557e+01 2.6882242163609078e+01 0 1 0
3974 4 1 0.0000000000000000e+00 7.7649747977375654e+00 1.2249440408139577e+01 2.6911033914611139e+01 0 1 0
3923 4 1 0.0000000000000000e+00 1.0604740045414383e+01 1.2443449014247507e+01 2.6988203406771007e+01 0 1 0
3927 4 1 0.0000000000000000e+00 1.2037227115322532e+01 1.2588592502258441e+01 2.6932161295415469e+01 0 1 0
3976 4 1 0.0000000000000000e+00 8.3957394690801070e+00 1.3572651812695165e+01 2.6957265737689383e+01 0 1 0
3975 4 1 0.0000000000000000e+00 9.7879383413617571e+00 1.3619265984775971e+01 2.7037840721127225e+01 0 1 0
3977 4 1 0.0000000000000000e+00 7.5393507216369802e+00 1.4722849545551172e+01 2.6941624336058823e+01 0 1 0
3980 4 1 0.0000000000000000e+00 1.0408239005846349e+01 1.4936390514989469e+01 2.6992219807439099e+01 0 1 0
3982 4 1 0.0000000000000000e+00 1.1804718331124562e+01 1.5088308806003983e+01 2.6910348976320336e+01 0 1 0
1014 1 3 0.0000000000000000e+00 1.0981847191893948e+01 1.2302786546923492e+01 3.0359731983087428e+01 0 0 0
1011 1 2 0.0000000000000000e+00 1.0188922925381686e+01 1.1100951028077390e+01 3.0360319172861381e+01 0 0 0
1012 1 3 0.0000000000000000e+00 8.7656966903456990e+00 1.1222105909112567e+01 3.0309914919607763e+01 0 0 0
1051 1 3 0.0000000000000000e+00 8.0956662693409367e+00 1.2544683295261697e+01 3.0357422819851479e+01 0 0 0
1052 1 3 0.0000000000000000e+00 1.0375505322815854e+01 1.3610351386460673e+01 3.0388516366850325e+01 0 0 0