
# convert from LAMMPS real units to SI

variable    kB equal 1.3806504e-23    # [J/K] Boltzmann
variable    kCal2J equal 4186.0/6.02214e23
variable    A2m equal 1.0e-10
variable    fs2s equal 1.0e-15
variable    convert equal ${kCal2J}*${kCal2J}/${fs2s}/${A2m}
variable    convert equal 6.95101741241486e-21*${kCal2J}/${fs2s}/${A2m}
variable    convert equal 6.95101741241486e-21*6.95101741241486e-21/${fs2s}/${A2m}
variable    convert equal 6.95101741241486e-21*6.95101741241486e-21/1e-15/${A2m}
variable    convert equal 6.95101741241486e-21*6.95101741241486e-21/1e-15/1e-10

# setup problem

dimension    3
boundary     p p p
lattice      fcc 5.376 orient x 1 0 0 orient y 0 1 0 orient z 0 0 1
Lattice spacing in x,y,z = 5.376 5.376 5.376
region       box block 0 4 0 4 0 4
create_box   1 box
Created orthogonal box = (0 0 0) to (21.504 21.504 21.504)
  1 by 2 by 2 MPI processor grid
create_atoms 1 box
Created 256 atoms
  create_atoms CPU = 0.000404835 secs
mass         1 39.948
pair_style   lj/cut 13.0
pair_coeff   * * 0.2381 3.405
timestep     ${dt}
timestep     4
thermo       $d
thermo       2000

# equilibration and thermalization

velocity     all create $T 102486 mom yes rot yes dist gaussian
velocity     all create 70 102486 mom yes rot yes dist gaussian
fix          NVT all nvt temp $T $T 10 drag 0.2
fix          NVT all nvt temp 70 $T 10 drag 0.2
fix          NVT all nvt temp 70 70 10 drag 0.2
run          8000
Neighbor list info ...
  update every 1 steps, delay 10 steps, check yes
  max neighbors/atom: 2000, page size: 100000
  master list distance cutoff = 15
  ghost atom cutoff = 15
  binsize = 7.5, bins = 3 3 3
  1 neighbor lists, perpetual/occasional/extra = 1 0 0
  (1) pair lj/cut, perpetual
      attributes: half, newton on
      pair build: half/bin/atomonly/newton
      stencil: half/bin/3d/newton
      bin: standard
Per MPI rank memory allocation (min/avg/max) = 3.152 | 3.152 | 3.152 Mbytes
Step Temp E_pair E_mol TotEng Press 
       0           70   -505.75228            0   -452.54482   -1289.8945 
    2000    75.909905   -455.27635            0   -397.57673    633.55017 
    4000    69.070648   -458.84306            0     -406.342    490.33847 
    6000    73.070108   -453.40271            0   -397.86164    702.95809 
    8000    67.705789   -456.55825            0   -405.09464    571.09923 
Loop time of 3.47415 on 4 procs for 8000 steps with 256 atoms

Performance: 795.820 ns/day, 0.030 hours/ns, 2302.720 timesteps/s
98.9% CPU use with 4 MPI tasks x no OpenMP threads

MPI task timing breakdown:
Section |  min time  |  avg time  |  max time  |%varavg| %total
---------------------------------------------------------------
Pair    | 1.7558     | 1.8046     | 1.8665     |   3.0 | 51.94
Neigh   | 0.047038   | 0.05015    | 0.054574   |   1.3 |  1.44
Comm    | 1.214      | 1.2729     | 1.3351     |   3.8 | 36.64
Output  | 0.0049028  | 0.0051463  | 0.0054874  |   0.3 |  0.15
Modify  | 0.17101    | 0.2411     | 0.31724    |  13.1 |  6.94
Other   |            | 0.1002     |            |       |  2.88

Nlocal:    64 ave 67 max 58 min
Histogram: 1 0 0 0 0 0 0 1 1 1
Nghost:    2073 ave 2079 max 2070 min
Histogram: 1 1 1 0 0 0 0 0 0 1
Neighs:    11614.5 ave 12302 max 10729 min
Histogram: 1 0 0 0 0 0 2 0 0 1

Total # of neighbors = 46458
Ave neighs/atom = 181.477
Neighbor list builds = 113
Dangerous builds = 0

# thermal conductivity calculation, switch to NVE if desired

#unfix       NVT
#fix         NVE all nve

reset_timestep 0
compute      myKE all ke/atom
compute      myPE all pe/atom
compute      myStress all stress/atom NULL virial
compute      flux all heat/flux myKE myPE myStress
variable     Jx equal c_flux[1]#/vol
variable     Jy equal c_flux[2]#/vol
variable     Jz equal c_flux[3]#/vol
fix          JJ all ave/correlate $s $p $d              c_flux[1] c_flux[2] c_flux[3] type auto file J0Jt.dat ave running
fix          JJ all ave/correlate 10 $p $d              c_flux[1] c_flux[2] c_flux[3] type auto file J0Jt.dat ave running
fix          JJ all ave/correlate 10 200 $d              c_flux[1] c_flux[2] c_flux[3] type auto file J0Jt.dat ave running
fix          JJ all ave/correlate 10 200 2000              c_flux[1] c_flux[2] c_flux[3] type auto file J0Jt.dat ave running

#variable     scale equal ${convert}/${kB}/$T/$T/$V*$s*${dt}
#variable     k11 equal trap(f_JJ[3])*${scale}
#variable     k22 equal trap(f_JJ[4])*${scale}
#variable     k33 equal trap(f_JJ[5])*${scale}
thermo	10
thermo_style custom step temp v_Jx v_Jy v_Jz #v_k11 v_k22 v_k33

run          100000
Per MPI rank memory allocation (min/avg/max) = 5.027 | 5.027 | 5.027 Mbytes
Step Temp v_Jx v_Jy v_Jz 
       0    67.705789 0.0093174873   0.01911782 -0.023963051 
      10    66.781131 -0.0059547557  0.020913263 -0.029910465 
      20    64.918979 -0.024249061  0.022626705 -0.029636586 
      30    65.901792 -0.027845309  0.020058785 -0.021857953 
      40    68.266473  -0.01488111  0.018328914 -0.021276949 
      50     68.81499  0.007588501  0.013529907 -0.032050847 
      60    70.167512  0.019705751 0.0062374883 -0.041046251 
      70    70.519224  0.014075341 0.0033654482 -0.036339959 
      80    73.934668 0.0056247521 0.0045135105 -0.023164323 
      90    76.893429 0.00072524125 0.0036970472 -0.012178022 
     100     71.69176 0.0060381205 0.00082846522 -0.0031782829 
     110    73.705004  0.012887429 0.00095902434 0.0072985248 
     120    73.617083 0.0068023337 0.0068637754  0.020103383 
     130    71.855621 -0.0048908055  0.008072737  0.036731235 
     140     69.07269 -0.0063376353 0.0015843696  0.046471775 
     150    67.268516 -0.0014068281 0.00030830769  0.034276254 
     160    66.278842 0.00055869048 -0.0012074258  0.011954102 
     170    67.491817 -0.005473396 -0.0061228407 -0.0049714441 
     180    68.368994 -0.014879724 -0.008775984 -0.015631463 
     190    68.977577 -0.017779337 -0.0049184002 -0.013074679 
     200    71.127819 -0.016138941 0.0039943316  0.006167511 
     210    73.222723 -0.010983783  0.018879099  0.020531212 
     220     73.66971 -0.0010494701  0.033376475   0.01683277 
     230    74.301178 0.0066982002  0.026778376  0.014180991 
     240    74.020164  0.010253837 0.0032032362  0.019849309 
     250     72.56811  0.010935201 -0.0045367596  0.024339117 
     260    70.870729 0.0078054211 0.0073356825    0.0232344 
     270     68.37921 0.0028923806  0.017395027  0.017581877 
     280    64.601792 0.0064331998  0.010049084 0.0028367841 
     290    67.127416  0.015408853 -0.010153449 -0.0084514218 
     300    66.283775  0.022628092  -0.01926616 -0.0052168194 
     310    66.657745  0.029731864 -0.015130449 0.0015772703 
     320     67.78118  0.038195939 -0.011187044 0.0048364204 
     330    69.713342  0.045651208  -0.01469341 0.0031090048 
     340    71.229683  0.047221001 -0.018786254 0.0060087516 
     350    72.975501  0.047181098 -0.015627916   0.02600439 
     360    75.390415  0.044960652 -0.0053165063  0.048835169 
     370    72.160561  0.040070694 -0.0030028833  0.051395797 
     380     74.49893  0.038958035 -0.012358815  0.044052621 
     390    75.532986  0.037500959 -0.016525485  0.032615407 
     400    71.987718  0.036567957 -0.010954651   0.01914105 
     410    69.490496  0.037610479 -0.0060418445 0.0066944156 
     420    67.260144  0.040955114 -0.011292025 -0.0023668001 
     430    68.721752  0.043948395  -0.01897672 -0.00087406732 
     440    65.633687  0.039027351 -0.012190874 0.0044089125 
     450    65.403621  0.040091943 0.0098137949 0.0067072718 
     460    64.890754  0.054264034  0.027378845 0.0074972866 
     470    66.747715  0.060210966  0.024570172 0.0060792112 
     480    70.019718  0.046710265  0.010411212  0.002161669 
     490    71.394676  0.025941882 -0.0019286505 -0.0093488099 
     500    74.021013  0.014768218 -0.0010209041 -0.029901726 
     510    71.783774   0.01961208 0.0095659616 -0.047865163 
     520    73.768501  0.029389847  0.016095599 -0.059517558 
     530    74.360121  0.023411714  0.012637096 -0.060809135 
     540    69.923559 0.0049117719 0.0090921103 -0.041649931 
     550    68.183328 -0.0061827889 0.0024141998 -0.015348483 
     560    66.615579 0.00038967794 -0.0074511174 0.00059204958 
     570    66.023509  0.016137439 -0.0084946377  0.006890322 
     580    63.307602  0.026616642 -0.0099725055 0.0077666129 
     590    68.115977  0.022545968   -0.0213081 0.0019311619 
     600    67.285931 0.0097721911 -0.026513479 -0.0093818357 
     610    67.662845  0.008673306 -0.010144082  -0.01643206 
     620    70.563347  0.013775083  0.008015003  -0.01397182 
     630    73.134219  0.016869426 0.0033470174 -0.0056578654 
     640    74.350159  0.015213324 -0.0070320643 0.00035972309 
     650    74.265858  0.010495753 -0.0039667253 -0.0036473875 
     660    73.480893 0.00063611432 0.0076414366 -0.012553133 
     670    69.719218 -0.016042989  0.021335481 -0.021004806 
     680    67.301222  -0.02458984  0.040583006 -0.017879362 
     690    64.953592 -0.017094529  0.057147092 -0.0058421054 
     700    67.663474 -0.003181227  0.066230224 -0.0047391761 
     710    65.971832  0.010148239  0.064095376 -0.0089678481 
     720    65.759512  0.021609803  0.059670114 -0.004634173 
     730    68.657043  0.030820344  0.059664236 -0.00059512851 
     740    71.832134  0.027852313  0.054972886 0.0043119127 
     750    74.749096  0.018373591  0.042807576 0.0099411951 
     760    74.826153  0.015134393  0.034134463 0.0076606023 
     770    73.781213  0.019807148  0.035096449 0.0056475144 
     780    71.755241  0.023068466  0.039219423    0.0126652 
     790    72.491665  0.018148504  0.039689373  0.026242646 
     800     71.78571 0.0036870049  0.032247249  0.035048663 
     810    69.483785 -0.012696081  0.028320478  0.037340442 
     820    67.247653  -0.01588526  0.035221612   0.04183441 
     830    66.171034 -0.010353377   0.04265678   0.05084148 
     840    67.805521 -0.011918645   0.03936784  0.054426318 
     850    67.039699 -0.017493595  0.026979351  0.049058114 
     860    66.853175 -0.014033876   0.01718632  0.050603099 
     870     68.92512 -0.00071996618   0.01044484  0.062163812 
     880    71.257342 0.0046512899 0.0076850581  0.067187441 
     890    73.867701 -0.001952691  0.016365648  0.060817212 
     900    74.692823 -0.0047204016   0.03493713  0.049154491 
     910    76.640455 6.4392934e-05  0.050006007  0.037961707 
     920    71.793698 0.0075189501  0.050462919  0.027066918 
     930    72.421374   0.01225682  0.045026497  0.022818119 
     940    70.823373  0.011414478  0.035224365  0.019413564 
     950    67.672584  0.012650595  0.025523217  0.015045905 
     960    68.555698  0.020830123  0.019702256   0.01360518 
     970    66.063623  0.024079674  0.015457872  0.017886564 
     980    64.392464   0.01848989   0.01586549  0.026784145 
     990    66.749855  0.015167055  0.023609856  0.037787821 
    1000     70.39109   0.01569869  0.036327983  0.044628999 
    1010    72.917015 0.0096684712  0.048285426  0.043149142 
    1020    71.859243 -0.00014108371  0.052855377   0.04228274 
    1030    73.683523 -0.0048182966  0.058182065  0.054495523 
    1040    73.175599 -0.0032290184  0.063343853  0.068093361 
    1050    73.053614 -0.0023882135  0.060664768  0.065858989 
    1060    72.552776 -0.0012586778  0.053989128  0.056324597 
    1070    69.567798 0.0034649536  0.050376837  0.049360604 
    1080    65.267795 0.0089271987  0.046941561   0.04501122 
    1090    65.752626  0.017142563  0.042165593  0.045944364 
    1100    66.506967  0.026954013  0.037865295  0.053285616 
    1110    65.781874  0.035676402    0.0354854  0.068987119 
    1120    66.248652  0.046117383  0.028753638  0.076479974 
    1130    69.175161  0.055473541  0.019651344    0.0653173 
    1140    70.420757  0.058771912  0.022123405  0.057896047 
    1150    73.685263  0.052457869  0.035061857  0.064044283 
    1160    74.843986  0.030928504  0.037807692  0.062342579 
    1170    73.783355 0.0083700524  0.021381637  0.054289477 
    1180    72.295293 -0.0042801531 -0.0012717254   0.05539236 
    1190    72.327301 -0.00091622974 -0.012784372  0.071918533 
    1200    71.325997  0.012148608  -0.01248927  0.081696392 
    1210    69.514691  0.010182745 -0.010643764  0.059538543 
    1220    66.888034 -0.0048302136 -0.0065340543  0.028696899 
    1230    65.338237 -0.020256223 -0.0049108836  0.018105546 
    1240    64.080674 -0.025953198 -0.011306949   0.03047988 
    1250    68.613298  -0.02360642 -0.022584461  0.050190981 
    1260    70.154382 -0.024131026 -0.028026594    0.0549343 
    1270    72.657618 -0.020031075 -0.017786857  0.046735666 
    1280    71.592036 -0.013639886 0.0040664343  0.034726797 
    1290    74.025006 -0.015637264  0.022465289  0.034419264 
    1300    74.135909 -0.023069324  0.025446544  0.043016853 
    1310    75.876861 -0.033218991  0.012023751  0.046913891 
    1320    72.131649 -0.041785462 -0.0058781627  0.043118507 
    1330    70.711895 -0.045488863 -0.012590873  0.042778015 
    1340    70.374294 -0.039296464 -0.0057983152   0.04629178 
    1350    67.887194 -0.026247835 -0.0014309437   0.04771475 
    1360    67.594549 -0.018724244 -0.0071248577  0.042197572 
    1370    67.631351 -0.014634664 -0.010326365  0.031360226 
    1380     65.81769 -0.0046910325 -0.013201063  0.021463345 
    1390    64.958104 0.0094552142 -0.025982676  0.017521931 
    1400    68.881938  0.020106647 -0.035325519  0.018082243 
    1410    71.053469  0.031670542 -0.037697862 0.0089867201 
    1420    74.418888  0.050689595 -0.045330752 -0.0036145424 
    1430    74.343865  0.062000573 -0.048763223 -0.0021537767 
    1440    74.269736  0.060717145 -0.035504185 0.0099785519 
    1450    73.764927  0.059324608 -0.014030208  0.021724786 
    1460    71.574578  0.066767917 0.0053639562  0.034434216 
    1470    69.432003  0.073683837  0.017871051  0.040932963 
    1480    67.790408  0.069565473  0.017796059  0.035256637 
    1490    63.453348  0.054228615 0.0023248527  0.028582492 
    1500     67.51311  0.042979732 -0.013264662  0.031366787 
    1510    66.446872  0.042685051 -0.015275052  0.032125552 
    1520    66.106717  0.059129904 -0.0080525061  0.028180924 
    1530    69.905271  0.076186483 -0.0049492795  0.024648446 
    1540    72.987578  0.073912753 -0.0089683876  0.021838569 
    1550     73.68999  0.057833029 -0.010990335  0.013426956 
    1560     75.32668  0.049124953 -0.0073612577 0.00062022152 
    1570    75.495563  0.050431651 0.00063638765 -0.0022651999 
    1580    71.031863  0.054413439 0.0021435103 0.0090716316 
    1590    68.673278  0.055877896 -0.0099375312  0.024318346 
    1600    67.694201   0.04691216 -0.022962527  0.030496495 
    1610    67.937122  0.029486684 -0.021083562  0.022150735 
    1620    65.936441  0.012176703 -0.0046173461  0.012252622 
    1630    65.507497 0.0010021436  0.011463115  0.014825235 
    1640    64.810372 0.0032920635  0.015761997  0.024057229 
    1650    65.553645  0.016350651 0.0097421536   0.02798574 
    1660    68.948645  0.026662663 0.00076250478  0.024570948 
    1670    68.445238   0.02789753 -0.0087868652  0.018462598 
    1680    70.194605  0.019779296 -0.019206651   0.01953658 
    1690    71.899829 0.0083451583 -0.027498187  0.026890035 
    1700    74.110489 0.00078220937 -0.029395347  0.034020322 
    1710    72.542541 -0.0040286846 -0.030348443  0.035548526 
    1720    73.538833 -0.0055648424 -0.033450132  0.029146276 
    1730    73.832183 -0.005362553 -0.035460255  0.009340493 
    1740    73.505344 -0.0086618513 -0.029166719 -0.0030888932 
    1750    69.784689 -0.013340272 -0.014805603 0.0034712337 
    1760    65.846044 -0.0099682713 -0.0095786712  0.014283606 
    1770    65.068672 -0.014873391 -0.011591414   0.01954896 
    1780    67.611291 -0.031183464 -0.015061515  0.032599765 
    1790    66.644739 -0.037099324 -0.020212631  0.045344342 
    1800    67.649998 -0.033533873 -0.027468847  0.055445838 
    1810    68.725346 -0.030195065 -0.028125419  0.062020898 
    1820    70.374777 -0.028192155 -0.015747475  0.064738512 
    1830    71.754989 -0.030044056 0.0040324088  0.056714128 
    1840    73.938863 -0.041037288  0.015803881  0.037029077 
    1850    74.768703  -0.05126791 0.0097176743   0.02513303 
    1860    76.811768   -0.0579873 -0.011036598  0.037288753 
    1870    71.631191 -0.059402755 -0.026665094   0.04574844 
    1880    71.220518 -0.046331522 -0.029773279  0.039285157 
    1890    69.787148 -0.016836105 -0.022230463  0.031046235 
    1900    69.199614 0.0016741202 -0.014456316  0.032981208 
    1910    66.031156 0.0023119075 -0.010683352  0.033361598 
    1920    64.615908 -0.0015430883 -0.010072136  0.026630206 
    1930    69.263669 -0.0031753976 -0.0068217696  0.020021595 
    1940    68.518281 -0.00075611274 0.00015533514  0.015237843 
    1950    69.887883 0.0096613453 0.0048269357  0.010983791 
    1960    70.505656  0.023627626  0.012033297  0.008311626 
    1970    72.871946  0.035034312  0.021297321  0.011451407 
    1980    74.400538  0.039501315  0.026694139  0.015389992 
    1990    76.087607  0.034628455  0.029879095  0.016647951 
    2000    72.281269  0.018966061  0.024387273  0.016022474 
    2010    71.715108 0.0079349615  0.016518433  0.017166049 
    2020    70.057084 0.0044805614  0.008053925  0.013122274 
    2030    67.800745 0.0082786391 0.0022984747 0.0063603707 
    2040    66.616487  0.017048393 -0.00072751638  0.012722983 
    2050    64.272973  0.016026346 0.00023791342  0.024259547 
    2060    68.558793 0.0097576697 0.0037992991   0.02530325 
    2070    66.525916   0.01222575 -0.001376067  0.009478961 
    2080    67.510902  0.017367608 -0.022787972 -0.0084492272 
    2090    69.028012  0.007688889 -0.048696869 -0.0027143553 
    2100    69.937052 -0.008116603  -0.05764328  0.018961792 
    2110    70.479284 -0.017553082 -0.037137084  0.009554493 
    2120    72.921428 -0.025070939 -0.021256058 -0.015876466 
    2130    73.333946 -0.031374721  -0.03005584 -0.025629227 
    2140    74.929274 -0.031115137 -0.044138111  -0.01640329 
    2150     73.01364 -0.021836321 -0.037836152 -0.0063254343 
    2160    71.127088 -0.010383905 -0.019710544 -0.0084803491 
    2170    69.150804 -0.002910774 -0.0097697486 -0.010985133 
    2180    68.334186 0.0026707674 -0.020767771 -0.0060192988 
    2190     67.28547 0.0084741337  -0.04526739 -0.0046096472 
    2200     67.46537  0.005417481 -0.057711667 -0.011160046 
    2210    66.653092 -0.00054621682 -0.058240036 -0.0076660328 
    2220    65.234306   0.00182922 -0.060692481  0.014184029 
    2230    67.580309  0.010654325 -0.073340024  0.039571761 
    2240    69.716547  0.014685127 -0.077039041  0.046374958 
    2250    71.671644  0.010358531 -0.068653201  0.035346858 
    2260    71.551143 0.0089904713 -0.071126616  0.027998036 
    2270    74.733688  0.014856109 -0.077144908  0.030045096 
    2280     77.23648  0.032684069 -0.076181327  0.032336441 
    2290    72.107946  0.053458337 -0.066400994  0.032147748 
    2300    71.622037  0.059097216 -0.053819506  0.031905481 
    2310    70.319897  0.053145993 -0.046000282  0.036299265 
    2320    69.160953  0.053000431 -0.041666538  0.047812806 
    2330    65.914089  0.059274836 -0.034093152  0.052500101 
    2340    64.818782  0.060693445 -0.026553009  0.045624202 
    2350    64.858668  0.054665422 -0.024174155  0.037422693 
    2360    69.336309  0.049793236 -0.027742972  0.033264819 
    2370    69.740168  0.047415111 -0.033459075  0.027173888 
    2380    70.817861  0.048071695 -0.035414019  0.020493204 
    2390     72.75838  0.046770271 -0.034216809  0.016333725 
    2400    74.170536  0.044850911  -0.04185117  0.015625673 
    2410    72.259962  0.040340657 -0.047384558   0.01759734 
    2420    73.409582  0.033263766 -0.047116588  0.020079013 
    2430    74.646835  0.030983041 -0.047005618  0.010989131 
    2440    70.902323  0.031877009 -0.039026073 -0.00065713275 
    2450    71.673733  0.025747187 -0.029527213 0.0047822884 
    2460    69.527658  0.015308509 -0.024368855  0.015060126 
    2470    67.885505  0.016247504 -0.024287568  0.016302647 
    2480     65.66501  0.022581159  -0.03030604  0.008438864 
    2490    68.524829  0.026913497  -0.03456183 0.0075808486 
    2500    66.846786   0.02567663 -0.029101914  0.021593653 
    2510     66.46087  0.022230997 -0.027458746  0.030125919 
    2520    69.622039  0.024686255 -0.035366997  0.025581951 
    2530    72.637317  0.019084003 -0.042847161  0.024039378 
    2540    75.123523 0.0042837117 -0.045599062  0.031116039 
    2550    75.663041 -0.0011956866 -0.047225584  0.039083877 
    2560    71.677823 0.0054516063  -0.05001046   0.03724654 
    2570    71.761323  0.013643161 -0.061858602  0.022205602 
    2580    70.153461  0.015723875 -0.072724493 0.0096537827 
    2590    68.667714 0.0027860512 -0.070879458   0.01103541 
    2600    65.902977 -0.011424297 -0.062029391  0.014112812 
    2610    64.960068 -0.012253309 -0.054022507  0.011679657 
    2620    65.923079 -0.00060659519  -0.04516228 0.0060263733 
    2630    66.340747  0.010823372 -0.032076441 0.0076554263 
    2640    65.062202 0.0088586245 -0.023518271  0.012761365 
    2650    69.924569 -0.0024271072 -0.027103541  0.012777861 
    2660    69.843806 -0.010843152 -0.030781024  0.012175828 
    2670    73.074824 -0.012389508 -0.030477376   0.01024665 
    2680    75.667606 -0.0074123529 -0.031687752  0.007232057 
    2690    72.854863 -0.00038179559 -0.027401154  0.013018652 
    2700    75.064472 0.0095462699 -0.019219359   0.03025755 
    2710    73.470235  0.017602919 -0.0058045058  0.037545519 
    2720     70.26007  0.030304032  0.011319973  0.038582762 
    2730    67.727853  0.043346859  0.021583364  0.046912771 
    2740    65.476321  0.046545347  0.020580603  0.057182445 
    2750    68.474488  0.044815792  0.014351144  0.058044453 
    2760    63.681101  0.036512593 0.0042667645  0.057975508 
    2770     68.30618  0.030145477 -0.0023056475  0.074105532 
    2780    66.792262  0.025525276 -0.0056855588  0.075921267 
    2790    67.562516  0.022270102 -0.012658392  0.064836255 
    2800    67.927316  0.016078695 -0.013181018  0.052828378 
    2810    69.514297 0.0050213662 0.00038548123  0.046658162 
    2820    71.200927 -0.0079821876  0.019683309  0.047758846 
    2830    72.255847 -0.016395242  0.032431421  0.050721017 
    2840    73.632782 -0.017233198  0.030604447  0.047454871 
    2850    74.904485 -0.0089177804  0.020870634   0.03785407 
    2860    77.041882 0.0085416197  0.018801445  0.031331922 
    2870    71.448073  0.023011658  0.017547121  0.023244528 
    2880    72.188695  0.030945802  0.015663226  0.015068536 
    2890    70.677611  0.037862211   0.02215497  0.016746219 
    2900    68.860868  0.049656158  0.033635668  0.029023967 
    2910    66.354934  0.059526126  0.038332464   0.04248332 
    2920    65.828562  0.055760711  0.034413284  0.051649428 
    2930    66.833033  0.038644456  0.030960752  0.058879494 
    2940    68.550261  0.024321686  0.033847221  0.062558202 
    2950    71.090474  0.019603547  0.038389175  0.057547548 
    2960    72.941419  0.022319203  0.035601855  0.046292984 
    2970    76.099456  0.038192214  0.032957227  0.038281199 
    2980    72.757134  0.055232871  0.031568263  0.037580583 
    2990    70.749014   0.06389737  0.027484751    0.0389441 
    3000    71.093553  0.065747901  0.023189939  0.037813107 
    3010    69.181575  0.049484427  0.012930212  0.035895747 
    3020    68.747723  0.030435242 0.0040245607  0.038063118 
    3030    65.937815   0.02480208 -0.0001328582   0.04331231 
    3040    64.859222  0.030660363 0.00034684493  0.045830357 
    3050      67.8838  0.033564221   0.00176415  0.044003237 
    3060    66.743288  0.023865462 -0.0013550395  0.040860442 
    3070    67.721357  0.014935667 -0.0043366234  0.040613569 
    3080    69.933319 0.0093386047 -0.0085088214  0.033787733 
    3090    72.095531 -0.0090044068 -0.017753885  0.017367374 
    3100    74.773497 -0.035718617   -0.0254366 0.0046363356 
    3110    76.902813 -0.040586166 -0.023982987 -0.0056993823 
    3120    73.017443 -0.027867241 -0.013481508 -0.0052674466 
    3130    74.125519  -0.01550496 -0.0028999133 0.0079211836 
    3140    71.850859 -0.0068658228 0.0015738537  0.022356387 
    3150    66.489338 -0.0048314432 0.0015399112  0.032546874 
    3160    66.756325 -0.0083349095 0.0035930987  0.032828187 
    3170    65.574471 -0.011525612 0.0069958934  0.021807288 
    3180    63.816565 -0.0091115475  0.007577883  0.015317827 
    3190    69.029168 0.0010313602 0.0044881007  0.019867723 
    3200    68.425013 0.0056503214 6.9637455e-05  0.022680295 
    3210    69.889071 -0.0030671344 3.791638e-05  0.022670065 
    3220    71.729008 -0.012045652 -0.00073747362  0.028050799 
    3230    74.293738 -0.0094084523 -0.0067833206  0.035696468 
    3240    73.846954 0.0028786147  -0.01000972   0.03123504 
    3250    74.845758  0.010529158 -0.011669448  0.024506849 
    3260    73.402082 0.0049898774 -0.021624575  0.019845943 
    3270    72.990449 -0.0028882172 -0.042384167 0.0079209805 
    3280    69.871702 -0.0098104703 -0.058167484  0.001678194 
    3290    68.039853 -0.015091951  -0.06664458 0.0099450538 
    3300    66.654601 -0.0094257712 -0.063955893  0.011065633 
    3310    67.204901 -0.0017127987 -0.050825515 -0.0025074236 
    3320     67.74408 -0.0094957161 -0.048360328  -0.01049558 
    3330    69.302918  -0.02431966 -0.055327278 -0.0085199523 
    3340    70.682282 -0.029038209 -0.050209191 -0.0043380842 
    3350     73.31496 -0.020950591 -0.038851971 -0.0025046494 
    3360    74.701798 -0.011098783 -0.035120488 -0.0055662682 
    3370    75.215385 -0.010175106 -0.035718597 -0.0054164366 
    3380    76.040016 -0.007639431 -0.027250271 0.0048900418 
    3390    71.287319 -0.00059656217 -0.0062960984   0.01023088 
    3400    70.674321 -0.002798196 0.0074689745 0.0093095097 
    3410    68.796923 -0.0039321767 0.0024524587 0.0098586498 
    3420    63.552268 0.0031333265 1.2343382e-05  0.011707415 
    3430    66.807192 0.0015486608  0.012385163  0.022304156 
    3440    65.952004 -0.011762934  0.019947133  0.029438004 
    3450    65.544744 -0.027101759  0.017097105  0.032996952 
    3460    68.742465 -0.031074911  0.019749738   0.04381241 
    3470    71.819769  -0.02584428  0.024871012  0.052493101 
    3480    74.310808 -0.013009986  0.022940395  0.047230349 
    3490    75.125797 0.0039472522  0.018433327  0.032533191 
    3500      73.6836  0.013003863   0.01526989  0.019025118 
    3510    73.401495  0.011003658   0.01767531  0.018631635 
    3520    70.523596  0.006446744  0.027950987  0.022476568 
    3530    67.317542 0.0028989115  0.040335242  0.022502235 
    3540    65.694974 -0.00096783947  0.042757693  0.022665179 
    3550    65.123457 -0.013372977  0.029972649  0.028465386 
    3560    66.825147 -0.024716817 0.0088478335  0.035237288 
    3570    67.374998 -0.022861695 -0.0036801739  0.029941054 
    3580    66.932522 -0.020428455 0.0043156113  0.017832149 
    3590    67.833564 -0.024775378   0.02044571  0.018416872 
    3600    68.993144 -0.029878258  0.024384024  0.029221677 
    3610    71.054881 -0.034904987  0.020595864  0.030535949 
    3620    72.471418 -0.030951518  0.017663601   0.01966314 
    3630    74.492725 -0.015751885 0.0043053246  0.012328977 
    3640    74.784468 -0.00071430027 -0.018590642 0.0079808515 
    3650    75.366891 -0.0021012403  -0.03369671 -0.0029446625 
    3660    70.493163 -0.010226076 -0.030028604 -0.018388066 
    3670    70.012337 -0.0062295952 -0.024663174 -0.027408996 
    3680    67.306551 -0.005224324 -0.021414711  -0.02534775 
    3690    67.278574 -0.010099921 -0.013366688 -0.027698221 
    3700    64.782309 -0.010156278 -0.0080592908 -0.034005486 
    3710    64.642096 -0.0060018287 -0.0073255305  -0.04439857 
    3720    67.887194 0.0039926684 -0.0013092421 -0.056528859 
    3730    67.923349 0.0099953189  0.010374595 -0.063865275 
    3740    70.281051  0.004065494  0.019985195 -0.066675308 
    3750     73.50531 -0.012291528  0.022406962 -0.063602982 
    3760    75.614285 -0.032291314  0.011610657 -0.059510284 
    3770    75.316519 -0.049285262 -0.0054521991 -0.054999337 
    3780    70.974827 -0.050892408 -0.015024356 -0.048862554 
    3790    69.973355  -0.03359991 -0.012890149 -0.039008011 
    3800    68.239679 -0.014285255 -0.010845419 -0.034777947 
    3810    68.312875 -0.0088959362 -0.015016112 -0.038730931 
    3820    66.273612 -0.013841486 -0.013451653 -0.038050208 
    3830    65.680235 -0.017133684 -0.010487885 -0.035797304 
    3840    65.248958 -0.011576067 -0.012479283 -0.041196829 
    3850    68.272019 -0.0081825572 -0.0082468413 -0.056846037 
    3860    70.705537 -0.022212493  0.011161644 -0.061917466 
    3870    72.353604 -0.038398091  0.028034978 -0.053898817 
    3880    73.395146 -0.038735449  0.035713219  -0.04743462 
    3890    74.697703 -0.033196829   0.04586167 -0.042492503 
    3900    76.917413 -0.029683721  0.052095851 -0.035496334 
    3910    72.229289 -0.029503247  0.044103527 -0.032337258 
    3920    74.271037 -0.032738479  0.039358981 -0.032814091 
    3930     74.14671 -0.025080761   0.04302794 -0.035299588 
    3940    69.978086 -0.0098315624  0.050401803 -0.041508542 
    3950    67.721035 -0.0053576123  0.062455611 -0.043353135 
    3960    65.465585 -0.011766916   0.07481564 -0.026252142 
    3970     68.45303 -0.018821114  0.079686334 0.0019299178 
    3980    66.854096 -0.025352944  0.075141446  0.010809051 
    3990    66.989632 -0.030441665  0.076623678 -0.0045730278 
    4000    68.337613 -0.024648347  0.072684433 -0.023028137 
    4010    70.926118  -0.01846626  0.057035972 -0.024635468 
    4020    72.462829 -0.020732638  0.041137517 -0.018191129 
    4030     75.13986 -0.023498199  0.034410937 -0.017883028 
    4040    72.042915 -0.022679408  0.029358037 -0.015651205 
    4050    70.613422  -0.02156334  0.027224162 -0.011728943 
    4060    69.368059 -0.017237131  0.026767369 -0.018168911 
    4070    68.611787 -0.013635357  0.024284013   -0.0289001 
    4080     66.26568 -0.014682754  0.015572957 -0.037311803 
    4090     65.30281 -0.023171409 -0.0013914165 -0.042198518 
    4100    67.280612 -0.033386123 -0.018076265 -0.040963178 
    4110    67.296665 -0.029360076 -0.023756074  -0.04271991 
    4120    68.975879 -0.014315976 -0.025253557 -0.044271479 
    4130    70.901911 -0.014747682 -0.024817106 -0.035893323 
    4140    73.305548 -0.029797657 -0.018763777 -0.029316021 
    4150    75.260075 -0.034848615 -0.020355114 -0.028268241 
    4160    76.941801 -0.030868083 -0.028211065 -0.036380843 
    4170    70.840327 -0.030369806 -0.024944157 -0.046629335 
    4180    70.611303 -0.031264395 -0.019682798 -0.049884842 
    4190    67.982507 -0.024666644 -0.0094052412 -0.037155934 
    4200    67.590526 -0.0078568836 0.0040752565 -0.022958581 
    4210    65.974773 0.0098890028  0.011245233  -0.02523218 
    4220    64.172062  0.016829124  0.014559492 -0.036169271 
    4230    68.377245  0.015646601  0.020015568 -0.039969513 
    4240    69.061624 0.0076694498   0.02157889 -0.035034358 
    4250    71.117423 -0.0055127847  0.014532619 -0.030477195 
    4260    71.336051 -0.0093994853 0.0077648967 -0.021455666 
    4270    73.427144 0.0054307373 -0.0020838846 -0.017237363 
    4280    74.460753  0.023776643 -0.0084665502 -0.028004435 
    4290     75.18805  0.025262793 -0.0022401818 -0.046507446 
    4300    72.146788  0.015532418  0.011936657 -0.056426116 
    4310    70.966621 0.0064213399  0.015977562 -0.046284086 
    4320    69.446428 0.00047193358 -0.00061608263 -0.023456723 
    4330    65.211656 -0.0065578295 -0.018804719 -0.0070358645 
    4340    67.676185 -0.015066485 -0.016402177 -0.0097734433 
    4350     65.70801 -0.017268849 0.00072445369 -0.021730938 
    4360    64.525867 -0.012509589  0.016651049 -0.025562398 
    4370    69.076719 -0.0047465459  0.030268534 -0.025800766 
    4380    69.314849 0.0034755119  0.036403589 -0.027230983 
    4390    71.410647 0.0043947507  0.034176611 -0.019167818 
    4400    73.598319 0.0025119641  0.027190186  0.003304972 
    4410    71.466005  0.007458312   0.02526347  0.012138211 
    4420    73.163469  0.016551482  0.030358508 -0.010112949 
    4430    73.426642  0.018693214  0.024743585 -0.029999704 
    4440    69.536698  0.014488879 0.0083564839 -0.028251612 
    4450    66.240078   0.01529442 -0.0052113217 -0.024234424 
    4460    64.619697   0.01414367 -0.014401195 -0.028535051 
    4470    68.011418 0.0089317069 -0.020327658  -0.03541205 
    4480    69.464138 0.0030258096 -0.017869764 -0.037749934 
    4490     71.25965 -0.00074667056 -0.0062277278 -0.037448398 
    4500    72.166487 -0.0026125854 -0.0016564685 -0.034703412 
    4510     72.97398 -0.0025324656 -0.013650453 -0.033033584 
    4520    75.356899 -0.0038272569 -0.029555471 -0.036043954 
    4530    73.855996 -0.0078984973 -0.039866539 -0.032036719 
    4540     75.13341 -0.017516973 -0.042652656 -0.023374967 
    4550    71.913562 -0.034621425 -0.029195242 -0.020878311 
    4560     70.57374 -0.041759444 -0.012004644 -0.020473198 
    4570    69.133626 -0.040434021 0.0079066435 -0.014153975 
    4580     65.95526 -0.039748431  0.033036887 -0.012691543 
    4590     67.81582 -0.040689951  0.049264047  -0.02325564 
    4600    66.541382 -0.037723519  0.044802148 -0.036721895 
    4610    66.603742 -0.033901965    0.0256738 -0.047752825 
    4620    67.231009 -0.031424433  0.003696986 -0.055022332 
    4630     68.69187 -0.028926826 -0.0088318635 -0.063423196 
    4640    70.325668 -0.027880851 -0.004938685 -0.077205958 
    4650     71.66162 -0.027782191  0.012019282 -0.084315083 
    4660    72.524248 -0.028411623  0.018331588 -0.066394795 
    4670    76.425865 -0.034368618 0.0051592205 -0.037334549 
    4680    72.659268 -0.034044926 -0.012636612 -0.021036355 
    4690    73.223432 -0.030695834  -0.01923833  -0.02460847 
    4700    70.877965 -0.033575106 -0.0097178288 -0.036505457 
    4710    69.568247 -0.033433734 -0.0081876819 -0.042867981 
    4720    68.301321 -0.027632955 -0.026704048 -0.041569643 
    4730    65.632505 -0.025436136 -0.038039811 -0.042558698 
    4740    64.856875 -0.019691559 -0.023280695 -0.047026228 
    4750      68.4763 -0.012604958 -0.011721299 -0.042788807 
    4760    66.045013 -0.017494362 -0.024206387 -0.029816322 
    4770     66.12192 -0.024988369 -0.034285253  -0.03196894 
    4780    66.268497 -0.027131909 -0.024689347 -0.047380558 
    4790    70.428716 -0.031071966 -0.016814712 -0.048608534 
    4800    72.468114 -0.034929031 -0.023947287  -0.02533313 
    4810    73.865283 -0.033230787  -0.03236622 -0.0035434887 
    4820    75.082402 -0.027715228 -0.032095313 -0.00024579575 
    4830    77.038813 -0.020044314 -0.034759815 -0.013223816 
    4840    71.125538 -0.0071640754 -0.041891232 -0.027945257 
    4850    70.903505  0.005427841 -0.045833963  -0.03025753 
    4860    68.180987  0.005839964 -0.044957463 -0.017285107 
    4870    67.964181  -0.01120554 -0.046670866 -0.0028453568 
    4880    66.592305 -0.032205104 -0.049373135 0.0044998179 
    4890    66.047719 -0.045390542 -0.052007382 0.0077632781 
    4900    64.774213 -0.043225427 -0.048039255  0.008050115 
    4910    67.799952 -0.027920557   -0.0379959 0.00071289582 
    4920    68.868954 -0.012351208 -0.026078515 -0.0095781655 
    4930    70.859015 -0.0024685608  -0.02488873 -0.012916481 
    4940    73.282924 0.0018586717 -0.030376779 -0.001790456 
    4950    73.716255 -0.0039146546 -0.018657443  0.010682292 
    4960    73.471722 -0.010309298  0.014107633 0.0097214113 
    4970    72.872453 -0.0052538665  0.040723163 -0.0021775251 
    4980    70.179493 0.0048125673  0.038327994 -0.010520424 
    4990    68.592877  0.010345193  0.020254836 -0.005974633 
    5000    67.625692 0.0076516921  0.009377739 0.0055039805 
    5010    65.747502 -0.0043286791 0.0030543207  0.012985702 
    5020    67.365043   -0.0107759 -0.0018010281  0.010675402 
    5030    66.555126 0.0032247451 0.0029887595 0.0047652536 
    5040     66.80704  0.024561538  0.012896548 0.0082033626 
    5050    66.152404  0.032179012  0.014126607 0.0086706066 
    5060     65.75218  0.017909459 0.0055700524 -0.0029376133 
    5070    70.131991 -0.007734027 -0.0033841384 -0.011925904 
    5080    72.268215 -0.010940888 -0.00014981765 -0.0094693099 
    5090    73.887138  0.004223978  0.014683764 -0.0071709125 
    5100    74.292818 0.0062859403  0.027186492 -0.0080223262 
    5110    71.082808 -0.0090989293  0.024186077 -0.011046809 
    5120    71.377051 -0.030642584  0.017221921 -0.011510425 
    5130    69.806582 -0.040078783  0.022473033 -0.0041442982 
    5140    67.967664 -0.027419209  0.035139438  0.011827811 
    5150    64.140572 -0.0074143768  0.033925389  0.022835298 
    5160    66.916438 0.00029187414  0.025212278  0.024360193 
    5170    67.217458 -0.00064453428  0.025404416  0.024517606 
    5180    69.669414 0.0047635945  0.025884048  0.025340643 
    5190    71.735354  0.015412986  0.019402997  0.022043556 
    5200    72.644402  0.019101548 0.0067087612  0.017750804 
    5210    76.031738  0.014973522 -0.010394155  0.017423993 
    5220    74.317953 0.0084250835  -0.01884491  0.021602687 
    5230    74.134155 -0.0012614456 -0.017426846  0.021724892 
    5240    72.719958 -0.016597148 -0.007221398  0.011164325 
    5250    72.214144 -0.023721661 0.0084009039 0.0026290373 
    5260    71.171363 -0.018510757  0.013714608 0.0040707457 
    5270    69.032119 -0.016626148 0.0072837279  0.011747789 
    5280    67.279349 -0.020181965 0.00045821429  0.021899946 
    5290    68.512883 -0.028944165 0.0025367257  0.023551668 
    5300    65.865995 -0.039325694   0.01385247  0.015435702 
    5310    64.886556  -0.03962907  0.025740567  0.014086542 
    5320    68.628279 -0.035055737  0.025700559  0.022434745 
    5330    72.087198 -0.025470182  0.013473106  0.031783806 
    5340    74.607687 -0.020346378 0.0047376516  0.034576658 
    5350    77.373527 -0.023607487 0.0082564199  0.028885112 
    5360    72.537872 -0.031529154  0.018751373  0.012667034 
    5370    73.818802 -0.047580919   0.01774171 0.0010502261 
    5380    73.460423 -0.064037031 0.0059154549 0.0019900738 
    5390    71.838018 -0.069574346 -0.0050513846  0.011453762 
    5400    68.730103 -0.054533244 -0.017194075  0.019691372 
    5410    69.514303 -0.031393255 -0.022700799  0.020080337 
    5420    65.949916 -0.018831734 -0.012825872  0.007249424 
    5430    66.331143 -0.026537615 -0.001123456 -0.0063342338 
    5440    64.798179 -0.029759201 0.0015719667 0.0019321093 
    5450    66.156916 -0.023409526 -0.0015259694  0.023638431 
    5460    66.756971 -0.021416585 -0.0052624914  0.039292541 
    5470    69.871568 -0.022349507 -0.0042891417  0.043543434 
    5480    72.818861 -0.019347745 0.0081245371  0.031687117 
    5490    75.122904 -0.015416613  0.024977058  0.014556816 
    5500    76.722028 -0.0091948019  0.029806448  0.010343309 
    5510    70.792713 -0.0045275716  0.020335703   0.01489797 
    5520    69.311727 0.00019075693  0.012728882  0.014170028 
    5530    67.495342  0.010455017  0.018294321  0.012400232 
    5540    67.833339  0.018489664   0.02582308   0.01512616 
    5550    66.445341 0.0086807718  0.018987909  0.018093046 
    5560    66.216431 -0.013331541 0.00049400103  0.013563559 
    5570    66.316008 -0.020952351 -0.0080448111 0.0054911499 
    5580    70.364006 -0.011573182 0.0008244689 0.0070716236 
    5590    72.315728 -0.0041645825  0.014136773 0.0081141871 
    5600    73.148033 0.0039414472  0.025285823 0.0016788019 
    5610    73.461545  0.016693887  0.037419703 -0.0079188331 
    5620     75.11818  0.025665132  0.049649972 -0.0071621578 
    5630     77.65263  0.026351025  0.046299447 0.0059163425 
    5640    71.655917  0.013937245  0.024505459  0.015837171 
    5650    74.424478 -0.0017754718 0.0055067883   0.02174387 
    5660     71.45964 -0.0027612815 -0.0030937257  0.023780158 
    5670    71.226633  0.012342453 -0.005617287  0.023088611 
    5680    70.127892    0.0284258 -0.0031350382  0.022159026 
    5690    69.091364  0.032855059 0.0020406151  0.023059993 
    5700    67.344187  0.025462435 0.0024824895  0.025003028 
    5710    66.185234  0.016436323 -0.0017368215  0.020899294 
    5720    69.211882  0.016883955 -0.005125777  0.016045622 
    5730    68.673605  0.026523113 -0.0052254557 0.0083254491 
    5740    70.032865  0.036478081 -0.00089986172 -0.0013021581 
    5750    70.440769  0.035815229 0.0066533752 -0.021490173 
    5760    73.149037  0.029155199  0.011474091 -0.052135897 
    5770    74.685729  0.020727355  0.008044176  -0.05918144 
    5780    77.219391  0.017543598 0.0054492627 -0.038270669 
    5790    71.426576  0.025021574  0.016059234   -0.0241416 
    5800    70.982047  0.037211907  0.049372749 -0.043014786 
    5810    68.441775   0.03189879  0.054012741 -0.042553433 
    5820    68.932391  0.022616196   0.02680401 -0.026243304 
    5830    66.869957  0.026683886  0.006634362  -0.01508547 
    5840    65.797436  0.037140305 -0.0098369098 -0.0091198906 
    5850    65.872721  0.033338107 -0.016766575 -0.017707449 
    5860    66.355711  0.013977507 -0.0036208219   -0.0317552 
    5870    70.207453 -0.0020362123  0.017939803 -0.043737365 
    5880    72.002605 0.0012651276  0.027895142 -0.052866457 
    5890     73.38734   0.01639833  0.023188983 -0.060630463 
    5900    74.059124  0.023661969  0.011962984 -0.057476477 
    5910    73.037482  0.017812386  0.010508031 -0.046248824 
    5920    72.556942  0.011443033  0.013902111 -0.040439417 
    5930    70.204392  0.014630565 0.0085113488 -0.043206607 
    5940    69.024073  0.027396891 0.0014445346 -0.046759968 
    5950    67.040432  0.037892657 -0.0034476599 -0.031949161 
    5960    68.484938  0.041496473 -0.0039949847 -0.0046346805 
    5970    66.314256  0.038511638 0.0014367113 0.0082331377 
    5980    65.379068  0.029033924 0.0059250548 0.0021978081 
    5990    64.607546  0.013119515 0.0068126037 -0.0059338689 
    6000    68.523704 0.0030328156 0.0076225431 -0.013711285 
    6010    71.263723  0.012396775 0.0040548382 -0.025984364 
    6020    72.805304  0.025371306 -0.0046254347 -0.031256977 
    6030    74.923045  0.020955135 -0.0073794885 -0.022158407 
    6040    76.959224  0.011509978 0.0017803482 -0.013720303 
    6050    71.990404  0.011028241 0.0063541093 -0.016271128 
    6060    73.526535  0.015141331 -0.0048117958 -0.027707577 
    6070    72.304053  0.014375914 -0.018577757 -0.034058911 
    6080    71.265782 0.0077293468  -0.01700175 -0.031701799 
    6090    68.923398 -0.007039514 -0.0031175237 -0.024316557 
    6100    66.153945 -0.022238722  0.005258382 -0.012617761 
    6110    64.277433 -0.026462968 0.0038509561 0.0003704796 
    6120    67.579041 -0.022834748 -0.00039465406 0.0017160676 
    6130    65.939855 -0.017523872 -0.00089552443    -0.012392 
    6140    65.631428 -0.020112313 -0.0063768065 -0.023385675 
    6150    65.888496 -0.025178386 -0.020030751 -0.027675071 
    6160    70.118626 -0.023940992  -0.02693435 -0.027387157 
    6170    73.457889 -0.025811114 -0.022053984 -0.015904134 
    6180    75.496389 -0.034493615 -0.0089384545 -0.0025102315 
    6190    73.666326 -0.041982311 0.0088697691 0.0011333317 
    6200     74.48946 -0.041478317  0.022592804 0.0028670686 
    6210    75.589866 -0.026164237  0.022750206 0.0067264087 
    6220    70.864496 -0.007382094 0.0075636995 0.0063570941 
    6230    67.263142 -0.0072543173 -0.0088777552 -0.00099548433 
    6240    66.042218 -0.026247472 -0.010980706 -0.0083475509 
    6250    63.825256  -0.04179255 -0.0036731436 -0.012306287 
    6260    68.212089 -0.046195295 -0.00096022056 -0.017456749 
    6270    69.189001 -0.040077866 -0.0058457187 -0.025738032 
    6280    70.649421 -0.022749497 -0.016085866 -0.028216543 
    6290    71.028462 -0.0037149461 -0.022526867 -0.020041181 
    6300    73.614905 0.0077759011 -0.017643622 -0.0060223108 
    6310    74.986195 0.0074638315 -0.0092817454 0.0006586549 
    6320     76.85604 -0.0052373747 -0.0034778547 -0.0037304197 
    6330    71.265452 -0.015803736 0.0056120546 -0.013055596 
    6340    71.492121 -0.014623889  0.012843064 -0.019268784 
    6350    69.874543 -0.0082308241  0.013225263 -0.013738465 
    6360    69.577993 -0.0032853447  0.010895461 0.0029290014 
    6370    67.703336 0.0024647687  0.016729462  0.026145303 
    6380    68.449112 0.0044000418  0.031498532  0.043232629 
    6390    67.360491 -0.0070639571  0.039410667  0.048543235 
    6400    66.626645 -0.021403576  0.037031518  0.048640137 
    6410    65.995419 -0.026367705  0.036469996  0.044124091 
    6420    65.984297 -0.023690215  0.039627188  0.036528614 
    6430    66.120371 -0.020312069  0.039715068   0.02754792 
    6440    66.893983 -0.017844478   0.03390419  0.017229201 
    6450    70.543448 -0.014799076  0.025368191 0.0090989591 
    6460    73.254976 -0.010977105  0.021391413 0.0029017459 
    6470    75.888323 -0.0087671537  0.019403764 0.00099867172 
    6480    72.323763 -0.0095519845  0.015410571 0.0010913464 
    6490    73.756761 -0.020513043  0.014352255 -0.0010826683 
    6500    72.968515 -0.043451024  0.010420151  -0.00326943 
    6510    71.942261 -0.058205243 0.0015743867 -0.0043007605 
    6520    71.370831 -0.047696054 -0.0035908612 -0.0071759535 
    6530    70.158665 -0.028441868 0.0049669039 -0.0072787997 
    6540    69.357812 -0.013735135   0.02242773 -0.0032128469 
    6550    67.309109 -0.0027906852  0.034586402 -0.002893933 
    6560    66.727331 0.0013260719  0.033092003 -0.0073243922 
    6570    64.409312 -0.0044882137  0.021081593 -0.010848197 
    6580    66.705071  -0.01661024 0.0098942386 -0.010965718 
    6590    66.286071 -0.019084014 0.0069042469 -0.0020820721 
    6600    68.754242 -0.0070650933 0.0064544893  0.013882844 
    6610    69.997771 -0.0023041101 0.0014240983  0.019493959 
    6620    71.409164 -0.011076926 -0.0022707666  0.013617965 
    6630    73.947931  -0.02083517 -0.0064555345 0.0096322544 
    6640    74.687989 -0.019403416 -0.014447568 0.0046287171 
    6650    76.207252 -0.0067722204 -0.020560677 -0.0075474284 
    6660    70.653075 0.0056139593 -0.012558226 -0.018537937 
    6670    70.657509 0.0028685074 0.0085604943 -0.019003848 
    6680    68.196223 -0.0065594871   0.02278196 -0.012797143 
    6690    66.275737 -0.012007586  0.015084723 -0.0071109071 
    6700    67.311435 -0.011338754 0.0070667556 -0.002368511 
    6710    66.349035 -0.0039134619  0.014267598 0.0019085841 
    6720    64.321639 0.0057198061  0.022418606 0.0061297505 
    6730    66.821458 0.0078266045  0.016434656  0.014063018 
    6740    68.430208 -0.00031874359 0.0027677442  0.020308767 
    6750     69.81921 -0.0057305674 0.00065581341  0.013399401 
    6760    70.751623 -0.0039201345 0.0088620066 0.0004304899 
    6770    73.791335 -0.010280681  0.012412485 -0.0098173687 
    6780     75.13737 -0.022047192  0.013160358 -0.013840087 
    6790     72.51018 -0.027876782  0.019967186 -0.017079323 
    6800    74.112443 -0.033438781  0.032254751 -0.023483151 
    6810    74.226525 -0.047946341  0.038381791 -0.022276647 
    6820    72.239992 -0.070933014  0.025531422 -0.0050983392 
    6830     70.13025 -0.083309214 0.0041340729  0.014542005 
    6840     69.14052 -0.072440176 -0.0069540176  0.013282696 
    6850    67.536294 -0.056280033 -0.011307742 -0.0060915892 
    6860    65.568611 -0.049173793 -0.020378507 -0.025587176 
    6870    63.598281 -0.044524875 -0.029009671 -0.032735061 
    6880    69.095008 -0.033305887  -0.02548205 -0.024677319 
    6890    69.341729 -0.018572605 -0.014003192 -0.0098628886 
    6900    70.720967 -0.013231153 -0.0083719616 -0.0043841812 
    6910    72.311936   -0.0151316 -0.010259609 -0.012174299 
    6920     71.95168 -0.024810721 -0.014362666 -0.026890273 
    6930    72.674439 -0.041975233  -0.01950684 -0.029556488 
    6940    71.275607 -0.057003081 -0.024576706 -0.015950706 
    6950     69.35905 -0.057309228 -0.024551133 -0.0068055952 
    6960    66.178991   -0.0462944 -0.021259769 -0.0059547682 
    6970    67.859687 -0.031837114 -0.025553324 -0.0047143196 
    6980    65.200185 -0.018156927 -0.027749962 -0.011728669 
    6990    67.327654 -0.015139873 -0.020561124 -0.029099053 
    7000    67.609364 -0.022294926 -0.0094924767 -0.038639775 
    7010    68.539297 -0.027179734 0.0024245235  -0.03338999 
    7020    69.856775 -0.019093826  0.017393217 -0.018767467 
    7030    71.126929 0.0031997813  0.026581408 -0.0025191049 
    7040    71.792452  0.025348831  0.018312964  0.011151478 
    7050    74.255184  0.031331038 0.0018838383  0.023342191 
    7060    75.785091  0.023095179 0.0021305033  0.023665041 
    7070     73.15957 0.0058415808  0.025005128 0.0070482309 
    7080    70.516925 -0.013262841   0.04613135 -0.0051441418 
    7090     68.66181 -0.013797701  0.043699164 0.0061060558 
    7100    66.820969 0.0079865308  0.031651175  0.026916168 
    7110    67.483019  0.029283781  0.023894983  0.034309722 
    7120    65.567741  0.028753226  0.022561801  0.024157279 
    7130    65.600926  0.012889964  0.027404364  0.011626108 
    7140    65.584669 0.0066839307  0.034264449 0.0024895635 
    7150    66.704374  0.013844341  0.034398544 -0.0020577299 
    7160    70.444249  0.020264589  0.022943509 -0.0033440714 
    7170    73.226697  0.020083622    0.0163628 -0.003189694 
    7180    74.921756  0.018775499  0.022794334 0.0028073692 
    7190    71.840441  0.021731235  0.031417753  0.014650834 
    7200    73.425285  0.027420652  0.040195124  0.021427222 
    7210    74.321378  0.027420748  0.052644046 -0.0035471955 
    7220    74.565471  0.023955737  0.058059364 -0.041634278 
    7230    70.767669  0.013491083  0.045773198 -0.056027272 
    7240    67.743476 -0.0035833707  0.032476063 -0.043455548 
    7250    66.133023 -0.014121423  0.031389363 -0.028200803 
    7260     65.01128 -0.017904008  0.029335142 -0.022538027 
    7270    64.004155 -0.020564005  0.022241286   -0.0192273 
    7280    67.705328 -0.027426778  0.021890904  -0.01989455 
    7290    67.171057  -0.03674027   0.01958708 -0.016839517 
    7300      67.2362 -0.036658719 0.0075587975 -0.0036195606 
    7310    70.219685 -0.020229971 -0.011800032 0.0093266283 
    7320    73.123743 -0.0018042588 -0.025372843  0.013943205 
    7330    73.845539 0.00021035759 -0.023694755  0.015969766 
    7340    74.802117 -0.0022082375 -0.018954828  0.022919504 
    7350    74.630475 0.00081511815 -0.019296615  0.033156888 
    7360    71.072364 -0.005931304 -0.021576242  0.032723761 
    7370    70.768578 -0.018886596 -0.022536701  0.016421832 
    7380    69.226423 -0.024933454 -0.025369356  0.010015991 
    7390    68.838483 -0.024423173 -0.027799137  0.025918249 
    7400    67.140299 -0.024419253 -0.022684921  0.047197585 
    7410    65.469328  -0.02796216 -0.012782709  0.059509302 
    7420    64.712199 -0.030811019 -0.0018723588  0.056627736 
    7430    67.103678  -0.02502058 0.0055683106  0.049139374 
    7440    70.311928 -0.0065687923 0.0050982631  0.043501739 
    7450    72.910567  0.013817288 0.00081524991  0.041732789 
    7460    74.943331  0.014507441 0.0078205787  0.047093847 
    7470    71.571748  0.001951792  0.016437448   0.05328721 
    7480    75.338171 -0.0053156541  0.014513244  0.060625093 
    7490    72.416531 -0.010840688 0.0075261066  0.059776559 
    7500    72.411496 -0.018825701 0.0066586191  0.053249619 
    7510    71.351613 -0.025081827 0.0067859161  0.046397479 
    7520    69.604205  -0.01842406 -0.0030634155  0.043711323 
    7530    69.071984 -0.00086329357 -0.017348454  0.042892706 
    7540    67.855404  0.017013925 -0.027968219  0.045908076 
    7550    67.278229  0.017459691 -0.027753063  0.055511112 
    7560    65.899875 0.0065795475 -0.020467798  0.055700427 
    7570    66.969021 0.0077537815 -0.010053995  0.049895852 
    7580    69.355855  0.022919562 -0.00081343195  0.045913092 
    7590    72.218381  0.034720039  0.012215822  0.039121072 
    7600    75.192444  0.024404778  0.035420809  0.025483012 
    7610    73.295606 0.0067369472  0.048184189  0.020236699 
    7620    71.735015 -0.0022660026  0.046350917  0.034302244 
    7630    73.151706 -0.0025058544  0.031960072  0.056389727 
    7640    73.546779 -0.0033878195 0.0081575939  0.065049485 
    7650     70.17748 -0.0034613913 -0.0073378666  0.052236279 
    7660    68.805888 0.0054126867 -0.016877513   0.03340445 
    7670     67.94148  0.019234951 -0.030489094  0.022814896 
    7680    65.634781  0.031391388 -0.041104862   0.01945954 
    7690    63.356395  0.036314729 -0.044274757  0.021890571 
    7700    68.873065  0.038714507 -0.038477776  0.027399661 
    7710     68.50692  0.041456954 -0.022234181   0.02315236 
    7720    69.427791   0.04971134 -0.0050809402  0.011332858 
    7730    70.884413    0.0578033 0.0095749476 -0.00010382313 
    7740    73.398664  0.054543012  0.014790614 -0.005223687 
    7750    74.671891  0.040252968 0.0068412484 0.00075051626 
    7760    74.864119  0.030710788 0.00058772678 0.0092024989 
    7770    72.403574  0.027303859 0.0055078646  0.012387539 
    7780    69.274372  0.028958948  0.017538074  0.012925395 
    7790    65.922699  0.032260728  0.021375791  0.014961752 
    7800    68.531849  0.031896825   0.01327237  0.017207508 
    7810     65.41127  0.023295137 0.0044727646  0.015424115 
    7820    64.695666 0.0092170484 0.0016892241  0.014039397 
    7830    65.721931 0.0030621376  0.006628022  0.008682077 
    7840    68.237439 0.0022379233  0.010602033 0.00022731469 
    7850    71.297107 0.0011420644 0.0050464069 -0.0060687614 
    7860    73.833868 0.0066854169 -0.0025712923 -4.8970998e-06 
    7870    73.541728  0.010908667 0.0039348561  0.012548014 
    7880    75.017992 0.0041560079  0.020069785  0.015829703 
    7890    74.194654 0.0046335124  0.027607434 0.0092853455 
    7900    73.444662  0.014541568  0.032327051 0.0077181685 
    7910    71.511775  0.022008528  0.031850298  0.022605935 
    7920    69.167075  0.028801526  0.028066613   0.04120217 
    7930    66.651048  0.035663759  0.031053107  0.040757976 
    7940    63.895092  0.033198825  0.038428756  0.021580233 
    7950    68.405749  0.026184379  0.046157929 -0.0020530679 
    7960    66.949855  0.023108395  0.047059036 -0.024945036 
    7970    67.242995  0.025399358  0.044879972 -0.031436686 
    7980    68.561662  0.022712843  0.043008836 -0.018963419 
    7990    70.334553 0.0092928222  0.041788839 -0.0074862937 
    8000    71.217943 -0.0029232442  0.035665984 -0.007898365 
    8010    74.489193 -0.0012883295  0.024180966 -0.015336299 
    8020    75.555708 0.0058024633  0.018124993 -0.019720078 
    8030    71.422419 0.0085665454  0.015443555 -0.022092986 
    8040    69.659755 0.0075355912  0.011990004  -0.02732983 
    8050    69.809553 0.0067611388 0.0088078974 -0.026758842 
    8060    67.038614 0.0032487381 0.0065821721 -0.018635812 
    8070    67.486941 -0.0084184572 0.0029350786 -0.021162303 
    8080    66.847469 -0.012850065 -0.0028772551 -0.031863687 
    8090    65.566802 -0.0012629622 -0.0095413419 -0.042796991 
    8100    64.357809  0.011910302 -0.019654901 -0.047709816 
    8110    69.310858  0.013999899 -0.028431018 -0.048949025 
    8120    69.423006  0.017536916 -0.023830658 -0.041750553 
    8130    71.112859   0.02470152 -0.016119514 -0.032102355 
    8140    71.257934  0.026541641 -0.010202069 -0.022628246 
    8150    73.905047  0.018422746 -0.013195456 -0.011976661 
    8160    72.002534 0.0015235736 -0.019193805 -0.0046295459 
    8170    74.394416 -0.010343414  -0.02368068 -0.0055179533 
    8180    75.762215 -0.018065054  -0.02961112    -0.013569 
    8190    72.299434 -0.029328877 -0.029930139  -0.01934869 
    8200    70.093508 -0.044756688 -0.016879088 -0.019509703 
    8210    66.956007  -0.05158873 0.0065377259 -0.020239263 
    8220       65.168 -0.046948508  0.023461722 -0.020367046 
    8230    67.099135 -0.041685603  0.021278772 -0.011751038 
    8240     66.81309 -0.035901675  0.013287182 -0.00099088024 
    8250    66.830907 -0.030095975  0.011837306 -0.0055180708 
    8260    67.653909 -0.023710222 0.00014386036 -0.020103488 
    8270    70.676562 -0.014030563 -0.016173618 -0.023898753 
    8280    74.664461 -0.0094074348 -0.014164104 -0.0072614445 
    8290    74.593952 -0.018703882 0.0028799956 0.0046071766 
    8300    73.757096 -0.029228282  0.024747638 0.0018293441 
    8310    74.420086 -0.037025038  0.039276732 -0.0095064464 
    8320    73.032102 -0.046331332  0.034743585  -0.01766526 
    8330    70.407225 -0.048464308  0.018167684 -0.016796903 
    8340    68.715291 -0.035493792 0.0074805488 -0.0096120078 
    8350    65.965912 -0.014451458 0.0054997488 -0.00063287339 
    8360    66.084926 -0.0014227535   0.01466427 -0.0011683972 
    8370    66.210293 -0.00016612866  0.027359416 -0.0055845716 
    8380     64.95863 -0.0031642291  0.028079539 -0.001808393 
    8390    65.600305 -0.0058962611  0.015765505 0.00078229214 
    8400    70.511459 -0.0076454929  0.008161665 0.0063842201 
    8410    67.883647 -0.012114856 0.0058355049  0.015220937 
    8420    69.260917 -0.017055689 -0.0010061308  0.014416785 
    8430     71.88723  -0.02065724 -0.012547339      0.01012 
    8440    71.816691 -0.021351627 -0.016868633  0.011589667 
    8450    72.936645 -0.024926056 -0.012224646  0.015582904 
    8460    73.724915 -0.034824026  -0.00640195  0.020033701 
    8470    73.588185 -0.047536703 -0.0060359924  0.027053941 
    8480    72.014858  -0.05559946 -0.0083921181  0.037236414 
    8490    69.519899 -0.049569833 -0.0079127683  0.049389092 
    8500    66.687415 -0.032971181 -0.0020977955  0.051226753 
    8510    63.657559 -0.027030007 0.0082950417  0.041833452 
    8520    67.917497 -0.035005735  0.010925297  0.040948015 
    8530    65.920062 -0.038009778 0.0018851634  0.046531381 
    8540    66.082513 -0.037570105 -0.0080741143  0.050511971 
    8550    66.298203 -0.042787783 -0.010061065  0.049720546 
    8560    68.637165 -0.047723962 -0.0012723282    0.0460334 
    8570    71.085237 -0.041795309 0.0085742246  0.041589855 
    8580    73.284879 -0.034121628  0.010766171  0.038237824 
    8590    72.378543 -0.038932534  0.010317522  0.035487371 
    8600     75.70656  -0.05416125  0.012387414  0.033207317 
    8610    73.106745  -0.06152645  0.015247081  0.031056755 
    8620    74.686531 -0.056160988  0.020562853  0.043069945 
    8630    73.611286 -0.038100041   0.02478645  0.062046727 
    8640    70.926165 -0.026326102  0.033273631  0.066460377 
    8650    67.403815 -0.026979402  0.050522058  0.050591891 
    8660    63.090339 -0.028228808  0.058597613  0.027632605 
    8670     67.66494 -0.028272902  0.052295737  0.023756221 
    8680    65.943804 -0.019905254  0.041045347  0.029956406 
    8690     64.87699 -0.0076316284  0.033901936  0.030248023 
    8700    69.557768 -0.00075087252  0.031139393   0.02971218 
    8710     70.00091 0.00039903821  0.025885423  0.028177471 
    8720    71.939407 0.0015311737  0.025086137  0.022708148 
    8730    76.245793 0.0079984519  0.029558543  0.020051456 
    8740    74.175352  0.014694401  0.029699432   0.01718952 
    8750    74.499465  0.017430115  0.018619839  0.011029752 
    8760    72.417016 0.0072255834 0.0034793502 0.0030539873 
    8770    71.724006 -0.015096646 -0.0034655229 -0.0059852596 
    8780    69.529219 -0.030984937 0.00095030831 -0.016059379 
    8790    67.967937 -0.035796937  0.012539925 -0.028839838 
    8800    64.549456 -0.037538728   0.02170537  -0.03692497 
    8810    69.537157 -0.034658871  0.023473337 -0.037537365 
    8820    67.573132 -0.024754857  0.019700564 -0.029099145 
    8830    65.354692 -0.013177407  0.020581122   -0.0161889 
    8840     66.43079 -0.00050403432   0.01957754 -0.0021566999 
    8850    68.139048 0.0080206426 0.0084645268 0.0058299915 
    8860    70.517552  0.011704603 -3.9553637e-05 0.0062292496 
    8870    73.333696  0.016866987 -0.0021766194 0.0085647697 
    8880    74.965795  0.017805644 0.0012892645    0.0184964 
    8890     76.78693  0.012968656 0.0099160645  0.023909689 
    8900    70.729515  0.014957221  0.018943548  0.020539744 
    8910    69.322536  0.025124409  0.026393101  0.016222969 
    8920    65.411472  0.023594115  0.032109996 0.0054733238 
    8930    67.566242  0.013780065  0.038773353 -0.0069905028 
    8940    65.403076  0.011537516  0.039060449 -0.014678788 
    8950    66.879886  0.017911108   0.03063233   -0.0230046 
    8960    65.286221  0.018316091  0.021533571 -0.033058808 
    8970    67.934505 0.0081980039  0.023915858 -0.032512076 
    8980    66.924824  0.004286167  0.035630549 -0.030481818 
    8990    68.096369  0.015285826  0.043096737  -0.04148884 
    9000    70.411947  0.029966292  0.039679703 -0.052792454 
    9010    73.184002  0.027183369  0.030008965 -0.046769855 
    9020    73.688469 0.0039422984  0.022506821 -0.031336216 
    9030    73.824365 -0.021027999  0.023975836 -0.020373399 
    9040    74.030903  -0.03002567  0.033409327 -0.012741104 
    9050    74.377995 -0.016746581  0.039571126 -0.009128701 
    9060    73.031836 0.0025564237  0.037305825 -0.0091180812 
    9070    71.693466 0.0042038109  0.030550441 -0.0068673902 
    9080    71.277672 -0.010244936  0.025919306 -4.7267215e-06 
    9090    69.361537 -0.012762337  0.030369984 0.0073923321 
    9100    68.251932 0.0036726576  0.040657995   0.01138969 
    9110    64.570372  0.022144463  0.044811916  0.015793028 
    9120    66.933175   0.02987874  0.042817619  0.020187165 
    9130    66.141877  0.016847041  0.036121189  0.025608996 
    9140    66.092948 -0.0058583312  0.027522935  0.036323052 
    9150    66.524724 -0.018408606   0.02045119  0.044889512 
    9160    68.280721 -0.014254723  0.024755042  0.043669805 
    9170    70.746988 -0.0055198299  0.038993195  0.029715509 
    9180    74.246955 -0.0014969284  0.049623623 0.0058313388 
    9190    74.906689 -0.0014373101  0.043266867 -0.013277768 
    9200    71.629922 -0.0039599462  0.018967125 -0.014826701 
    9210    72.439313 -0.0073390027 -0.0091388445 -0.0069621117 
    9220    71.394182 -0.0079102547 -0.032262712 -0.00067059681 
    9230    70.164375 -0.002384533 -0.043405125 -0.0034159876 
    9240     67.97074  0.011320852 -0.035034811 -0.013766735 
    9250    64.569634  0.022274645 -0.018600085 -0.018212704 
    9260     67.04413   0.01510731 -0.015127143 -0.011323728 
    9270    66.055776 0.0035802272 -0.017786933 -0.0047910877 
    9280    65.653313  0.011361614 -0.014913074 0.0027407992 
    9290    69.939258  0.037504885 -0.006457546 0.0090398448 
    9300    73.366999  0.064247947 0.0032921242 0.0046423634 
    9310    74.749432  0.072825479  0.015205883 -0.0047657666 
    9320    76.310504  0.058727953  0.028833392 -0.00061256126 
    9330     72.18787  0.032666328  0.031945111  0.013921606 
    9340    70.989651  0.024946887  0.021987197  0.019425433 
    9350    68.911996  0.029660322 0.0084658582  0.011415797 
    9360    64.002473  0.029457246 -0.0012919144 -0.0054956026 
    9370    66.333484  0.023635332 -0.0057483414 -0.020870123 
    9380    66.768941  0.018143699 0.0012250798  -0.02658925 
    9390    68.406201  0.017516449  0.016691028 -0.025117595 
    9400    70.066924  0.015628705  0.020418624 -0.020393707 
    9410    71.477979  0.012478125  0.012418166 -0.017308183 
    9420    73.509347 0.0046175183 0.0071962253 -0.019095239 
    9430    74.718327 -0.0073248254 0.0080149958 -0.029247194 
    9440    75.500381 -0.006859917  0.010738196 -0.039884549 
    9450    75.718758 0.0087995287 0.0082255888 -0.036755401 
    9460    70.464647  0.019577714  0.010959465 -0.026084291 
    9470    68.761271  0.016976737  0.019679049 -0.027261911 
    9480    67.154074  0.013310478  0.024953378 -0.036355744 
    9490    68.360284  0.022957732  0.033324518 -0.034753884 
    9500    67.045464  0.041139949  0.035874795 -0.015213027 
    9510    65.927121  0.047245082  0.025099699 0.0081151851 
    9520    65.972628  0.029304576 0.0096770452  0.022956582 
    9530    70.410648 0.0066724748 0.0077300971  0.027218019 
    9540    72.643603 -0.0030891964  0.018918386  0.020075255 
    9550    75.103623 0.00041442458  0.024184688  0.010376781 
    9560    72.078273 0.0087456176  0.013882265 0.0066778972 
    9570    73.559515  0.016280496 -0.00060676742 0.0067657833 
    9580     72.28544  0.017112663 -0.0063300212 0.0071597767 
    9590    70.747417 0.0077979925 -0.003358617  0.013378404 
    9600    68.246076 -0.0050665135 -0.0019743915  0.021383732 
    9610    67.690161  -0.01225123 -0.0094868947  0.017709528 
    9620    65.426623 -0.014381342 -0.0065421756 -0.0024160961 
    9630    66.836804  -0.01548169  0.015796449 -0.020407154 
    9640    68.301623 -0.012181695  0.031579858 -0.019433629 
    9650    69.193632 -0.00073095177  0.024738841  -0.01220904 
    9660    71.058069  0.014386822 0.0033080961 -0.013312186 
    9670     71.38862  0.024011586 -0.013980886  -0.01941014 
    9680     72.21791  0.030841394 -0.015213852 -0.022201637 
    9690    74.034328  0.041711192 -0.010654435 -0.022174942 
    9700    73.973937  0.048439021 -0.0065800271 -0.019791275 
    9710     74.40266  0.043387126  0.001702572 -0.017714071 
    9720    74.228227  0.030007557  0.013282749 -0.021673355 
    9730    70.327653  0.021339502  0.022068479 -0.021807748 
    9740    66.923463  0.025816104  0.028046238 -0.013717766 
    9750     67.84178  0.038654752  0.033529645 -0.0081808887 
    9760    66.586371     0.049015  0.038425293  -0.01048645 
    9770    65.630033  0.052910608  0.046720042 -0.014760127 
    9780     65.92339  0.049735227  0.054121017 -0.019037848 
    9790    67.442035  0.045563451  0.057452537 -0.023814817 
    9800     70.34961  0.046201192   0.05353247 -0.024837757 
    9810    72.534536  0.049669708  0.037795956 -0.026315566 
    9820    73.382561  0.052858273  0.016107791  -0.02914931 
    9830    75.582155  0.053524891 -0.0027175471  -0.03033857 
    9840    75.488801  0.045444438 -0.0083083864 -0.037853454 
    9850    73.229438  0.039529705 0.00014845647 -0.047158682 
    9860    75.277307  0.038604794 0.0078932998 -0.051843857 
    9870    70.975006  0.035814041 0.0092462768 -0.052053219 
    9880    70.448638  0.040875468 0.0064568229 -0.049416021 
    9890    68.018917  0.046871261 0.0067159261 -0.041031209 
    9900    67.485538  0.046464195 0.0082461679 -0.030153035 
    9910    66.450155   0.03658357  0.005629137 -0.026408609 
    9920    67.156705  0.024145878 -0.0040771088 -0.033001341 
    9930    66.581647  0.015588043 -0.0094178812 -0.027267506 
    9940    66.996101  0.012775988 -0.002087685 -0.0045536746 
    9950      65.2048  0.016186286  0.003312431 0.0087151031 
    9960    64.810261  0.017617329 0.0032351655 0.0051918043 
    9970    68.910012  0.014689653 0.0030083668 -0.0035627248 
    9980    71.768786  0.015750633  0.004211446 -0.012315736 
    9990    75.009532  0.019041336 0.0057363139   -0.0179279 
   10000    74.376858  0.021580337 0.0015562378 -0.014136733 
   10010    72.840827   0.01868998 0.00024656883 -0.0099644298 
   10020     72.12179  0.012705258  0.013461313 -0.015915946 
   10030    71.134759  0.012338002  0.024094752 -0.026295674 
   10040    69.715121   0.01292105   0.02279531 -0.031255995 
   10050    67.737479  0.008271786  0.014421251 -0.030452883 
   10060    69.201339 0.0026630168  0.011525533 -0.028426452 
   10070    68.186715 -0.002683532  0.025725129 -0.026698432 
   10080    68.793807 -0.0076355371  0.041734101 -0.026953018 
   10090    70.269174 -0.004482458  0.051805725 -0.034125692 
   10100     72.21991 0.0070034899    0.0523777 -0.043133716 
   10110     72.16168  0.020781617  0.040459422 -0.047571903 
   10120    74.402452   0.02733848  0.027024996 -0.047989692 
   10130    73.215352  0.022922968  0.024922076 -0.042320804 
   10140    70.976143  0.018758062  0.031995594 -0.027212498 
   10150    69.448845  0.025029637  0.031878302 -0.00046327874 
   10160    65.537037  0.033963023  0.023951437  0.020878814 
   10170    65.430258  0.038992303  0.016232147  0.023140056 
   10180    66.119176  0.039926662  0.015400594 0.0093848958 
   10190     66.30021   0.03415811  0.020922839 -0.0038004733 
   10200    64.954204  0.013760065  0.022232457 0.0052719139 
   10210    69.696896  -0.01267535  0.018843868  0.029703414 
   10220    72.006738 -0.019262892 0.0075697967  0.043797484 
   10230    74.787479 -0.0055789831  -0.01454923  0.043202708 
   10240    77.028081 0.0052278645 -0.034746125  0.040791841 
   10250    72.892977 0.0077679393 -0.033746136  0.036115411 
   10260    73.290307 0.0054727347  -0.02030929  0.028734704 
   10270    71.051376 0.0016687803 -0.008941513  0.019824505 
   10280    69.185273 0.00052104809 -0.0078653513 0.0062787403 
   10290    68.138645  0.003865911 -0.017308225 -0.010522059 
   10300    68.835647  0.013688657 -0.029724332 -0.014631344 
   10310    66.977725   0.02152597 -0.036221942 -0.0089497847 
   10320    66.989305  0.021595869 -0.034998735 -0.0074012968 
   10330    65.110014  0.019857636 -0.033653107 -0.011449285 
   10340     65.58933  0.025099407 -0.036359477 -0.013020995 
   10350    68.543399  0.037381863 -0.034259217 -0.011605324 
   10360    69.681149  0.048046494 -0.028153232 -0.021423454 
   10370    71.237276  0.050111378 -0.022926975 -0.042927301 
   10380    75.062756  0.046687439 -0.020829282 -0.059722396 
   10390    72.214322  0.042192362 -0.020092539 -0.054700015 
   10400    74.575235   0.04403387 -0.020939659 -0.046016403 
   10410    74.833237  0.047082304 -0.016290222 -0.041953931 
   10420    75.553539  0.043154856 -0.0055753565 -0.034622042 
   10430    71.966885  0.026651524 0.0055363388 -0.023121007 
   10440    69.443449 0.0081344049  0.008742094  -0.01844133 
   10450    68.042537 0.0020671859 0.0067086207 -0.016915972 
   10460    66.579027  0.012271858 0.0069995284 -0.010370089 
   10470    66.951947  0.025657256  0.010279593 -0.0059091481 
   10480    66.289831  0.031758218 0.0078333501 -0.0044525929 
   10490    66.573135  0.028121441 0.0036843144 0.0045533009 
   10500    70.118703  0.017267191  0.010921321  0.020552822 
   10510    73.800236  0.013852695  0.026413067  0.034140567 
   10520    75.373684  0.020005055  0.032448207  0.048623285 
   10530    73.744295  0.024219462  0.020436379   0.06437033 
   10540    73.297666  0.027458981 0.0033311555  0.067005753 
   10550    70.752657  0.029624077 -0.005867112   0.04795712 
   10560    68.359251  0.027646777 -0.0070146732  0.027233454 
   10570    67.506313   0.02101246 -0.007955786  0.023503004 
   10580    64.381992  0.010607616 -0.011191535  0.032501299 
   10590    66.653818 0.0029340105 -0.011025108    0.0333531 
   10600    66.739085 0.0031436279 -0.0058195849   0.02690811 
   10610    66.917156  0.011319151 -0.011594781  0.028873849 
   10620    69.631455  0.018669799 -0.021681988  0.033012864 
   10630    71.915851  0.015817863 -0.023940542  0.036090463 
   10640    74.332271  0.009443947 -0.018942138  0.039339629 
   10650    76.661244 0.0079264661 -0.012378211  0.044107609 
   10660    71.101613   0.01660519 -0.013063253  0.046640901 
   10670    71.817034  0.026727392 -0.020393351  0.052412373 
   10680    70.548568  0.021823393 -0.020045769  0.051461122 
   10690    69.414388  0.012413669 -0.0094389996  0.036708132 
   10700    66.934333  0.010890107 -0.002501833  0.020926567 
   10710    64.276742 0.0048318055 0.00056483191  0.011211935 
   10720     68.73847 -0.017224843 0.0010761139 0.0082934138 
   10730    67.665876 -0.039335103 -0.0080440545 0.0098508512 
   10740    68.711307 -0.043614368  -0.01666258 0.0095970547 
   10750    69.097224 -0.036001313 -0.018033123  0.013485409 
   10760    70.951469 -0.036077937 -0.017890142  0.020289573 
   10770    71.485491 -0.038771824 -0.012111271  0.021511874 
   10780    72.253552 -0.031900628 0.0017018645  0.021913313 
   10790     74.37529 -0.025288815  0.010899788  0.021668645 
   10800    74.940405 -0.025415535  0.003692429  0.018850857 
   10810    75.939984  -0.02801796 -0.012146359  0.018070258 
   10820    70.912143 -0.032971576 -0.018485836  0.016666007 
   10830     70.12997 -0.041282141 -0.011312597  0.013512076 
   10840    68.149104 -0.047592676 -0.0053213171 0.0072297928 
   10850    68.629994 -0.052827919 -0.010869261 0.0029338974 
   10860    66.013411 -0.050673379 -0.021148299 0.0023416393 
   10870    62.659281 -0.042601911 -0.024948587 0.0013087587 
   10880    68.506756 -0.033768324 -0.019738083 -0.004810914 
   10890    66.870389 -0.032459862 -0.013625969 -0.016636541 
   10900    68.224431 -0.036172015 -0.013005684 -0.019357947 
   10910    70.307833 -0.026753467 -0.013664136 -0.011898773 
   10920    68.299469 -0.0055596806 -0.015562217 -0.0015235034 
   10930    70.598001  0.014974432 -0.013585226 0.0069791056 
   10940    71.443238  0.028046831 -0.0063760368  0.014723765 
   10950    72.705711  0.031667337  -0.00235966  0.020371414 
   10960    73.377184  0.029833391 -0.0058372749  0.020533742 
   10970    74.403251  0.031095361 -0.014033826  0.020208523 
   10980    74.335699  0.029702692 -0.014858857  0.016636277 
   10990    70.788655  0.017461112 -0.0048006351  0.011491659 
   11000    70.030544 0.0028113436 -0.0025830378 0.0079979157 
   11010    68.477954 -0.0027390665 -0.012760111 0.0019625663 
   11020    66.652439 -0.0026143674 -0.023923729 -0.0042646286 
   11030    68.574511 -0.013617296 -0.035561855 -0.0080730239 
   11040     65.73061 -0.029189297 -0.041971881 -0.0066609318 
   11050    65.771727 -0.032149935 -0.039427768 0.0022412595 
   11060    65.992403 -0.021625539 -0.033270652  0.015397918 
   11070    70.074736 -0.0089169019 -0.030945155  0.023859185 
   11080    73.902993 -0.0049356968 -0.033838325  0.022350514 
   11090    75.410034 -0.00015038631 -0.042371692  0.018260683 
   11100    75.005305  0.011886507 -0.056520425  0.021376851 
   11110    71.338491  0.016120198 -0.053343612  0.033381672 
   11120    68.325849  0.010260622 -0.032258364  0.038316633 
   11130    66.310086 -0.0052089986 -0.010974397  0.025110595 
   11140    69.084805 -0.025487597 0.0015906973 0.0094705448 
   11150    67.717916 -0.037788493 0.0040398397 0.0054122463 
   11160    67.534321  -0.04269261 0.0095898947 0.0032541352 
   11170    70.202451 -0.044039994  0.021160622 -0.015038809 
   11180    71.621004 -0.031961159  0.017654731 -0.036238975 
   11190    75.229323 -0.014767176 0.0058128047 -0.036585401 
   11200    73.282675 -0.0075175868 -0.0037573993 -0.022207558 
   11210    75.667923 0.0039029198 -0.017691497 -0.0086513378 
   11220     72.31726  0.022542428  -0.03107829 0.0022553295 
   11230     73.06731  0.037750159 -0.028447768 0.0074311591 
   11240    72.506904  0.039697244 -0.0088282349 0.0071950078 
   11250    71.603743  0.016734695 -0.00064395331 0.0022570132 
   11260    68.832183 0.0016281667 -0.0019349592 -0.00095592681 
   11270    66.449662 0.0081081922 -0.0022718874 0.0037528098 
   11280    64.463268  0.020564366 0.0024165612 0.0093280692 
   11290    67.900172  0.021218467  0.007360643 0.0074295587 
   11300    67.677768  0.017143771 0.0083565547 0.0020827179 
   11310    69.854238  0.025219975 0.0098629951  0.003168954 
   11320     71.75868  0.039609553  0.015073769  0.009314714 
   11330    73.354045  0.055287755  0.017242958 0.0055686865 
   11340    76.583349  0.065944761  0.011790088 -0.0039647531 
   11350    72.662352  0.052687979 0.0059280583 -0.0038462006 
   11360    74.254336   0.03254322 0.0052340482 -1.5726124e-05 
   11370     72.56228   0.01954684 0.0053209149 0.0042761502 
   11380    71.304428  0.022197128 -0.00043716557 0.0018460581 
   11390    68.260574  0.026049058 -0.016641452 -0.014568657 
   11400    65.313592  0.015164516 -0.034540449 -0.032634633 
   11410    68.737503 0.0032906088 -0.038414124  -0.02942505 
   11420    66.945696 0.0054288821 -0.026680447 -0.0053955161 
   11430    67.005912  0.010523563 -0.020008085  0.012683276 
   11440    68.163223 0.00051290714 -0.020011728  0.006831581 
   11450    69.804701 -0.019476968 -0.021519727 -0.010184915 
   11460    71.236673 -0.031055884 -0.024014198 -0.016192439 
   11470    71.134134 -0.028246288 -0.028831539 -0.0010987156 
   11480    73.126912 -0.017140204 -0.033861114  0.025413056 
   11490    74.559188 -0.0046606338 -0.033198882  0.039944609 
   11500    71.771348 0.00029778669  -0.02681403  0.035497692 
   11510    68.902132 -0.0042627795  -0.02833506  0.025819819 
   11520    66.279413 -0.0076116147 -0.038156319  0.015649646 
   11530    67.275439 -0.0031808888 -0.040350806 0.0012986972 
   11540    64.837496 -0.0013854417 -0.024461381 -0.017610296 
   11550    67.083154 -0.003531417 -0.0036817434 -0.024139573 
   11560    66.773206 -0.0091018502 0.0017806203 -0.010334484 
   11570      68.4913 -0.015492029 -0.0098112177 0.0073044519 
   11580     69.66313 -0.010266697 -0.028141061  0.010975972 
   11590    71.037787 0.0045781146 -0.044983673 0.0038905875 
   11600    73.059909  0.011981478 -0.050822288  -0.00652951 
   11610    74.594141 0.0099625138 -0.042806989 -0.018135954 
   11620    77.023938 0.0059895635 -0.032920482 -0.022085562 
   11630    71.538643 0.00077134018 -0.025926796 -0.010066363 
   11640    73.029956 -0.0019633318 -0.023589216  0.006821968 
   11650    71.321553 0.0029407923 -0.023635045  0.014755797 
   11660    70.090781  0.012721874 -0.028063991  0.011828973 
   11670    68.232273  0.020672054 -0.030913956 0.0077606452 
   11680    68.842081  0.025405572 -0.031495886  0.011354984 
   11690     66.02373  0.024448618 -0.034918837  0.024976605 
   11700    65.185061  0.023677233 -0.042307776  0.040722317 
   11710    67.299334  0.027332823  -0.04648501  0.052323915 
   11720    70.330899  0.032321786 -0.039637457  0.054479117 
   11730    72.229926  0.035546448 -0.023874697  0.050336766 
   11740    73.880934  0.032199128 -0.017203921  0.049911708 
   11750    75.132805  0.019071124 -0.029686517   0.05101351 
   11760    72.461175  0.011805984 -0.038365397  0.040134398 
   11770    72.116932  0.016975963 -0.037949666  0.029583424 
   11780    71.208235  0.022332498  -0.03492413  0.029013166 
   11790      69.3025  0.018365241  -0.02137245  0.038991125 
   11800    68.606169 0.0088284735 -0.00017650624  0.053846948 
   11810    68.024921 -0.0019114262  0.011738232  0.064085841 
   11820    65.819376 -0.0092505672 0.0045745178  0.059230919 
   11830    64.587651 -0.0078017669 -0.0083377098  0.036328662 
   11840    66.507036 -0.0018171718 -0.013226485  0.016230973 
   11850    67.677125 0.0076371184 -0.016400327  0.013045426 
   11860    68.324486  0.020598641  -0.02422904  0.023313943 
   11870    68.910466  0.025419676 -0.030175951  0.035346713 
   11880    70.676256  0.021725515 -0.030240108  0.036142034 
   11890     72.58406  0.017563624 -0.031733284  0.032401476 
   11900    73.879033  0.020183027 -0.038888712  0.024261908 
   11910    70.631533  0.024971741 -0.044812676  0.011126194 
   11920    70.060027   0.02420571   -0.0531625 0.0057860124 
   11930    68.063894   0.02128809 -0.062346254  0.010877265 
   11940    68.725309  0.025182993 -0.063908708  0.017998174 
   11950    67.466769  0.030323093 -0.052179842  0.013820082 
   11960    66.173745  0.033830352 -0.041966269 -0.0013020705 
   11970    64.734339  0.042924065 -0.042271143 -0.0086788301 
   11980    66.020348  0.049424299 -0.040258029 -0.007047331 
   11990    69.670322  0.038441088 -0.028383282 -0.010760358 
   12000    71.757303  0.019827389 -0.023579443 -0.014637581 
   12010    73.563221  0.015395917 -0.031857434 -0.0084377679 
   12020    73.892217   0.02321902 -0.032403565 -0.0054003476 
   12030    73.931933  0.037044395 -0.023880874 -0.0054664927 
   12040    71.252162  0.046828655 -0.010681585 -0.0039789483 
   12050    70.476026  0.054961276  0.002980138 -0.0022529406 
[...]
   97010    67.597911  0.012376007 -0.062103111 -0.025788598 
   97020    66.889157  0.019523461 -0.059840356 -0.046247423 
   97030    69.415603  0.018936076 -0.051808143 -0.053076008 
   97040    72.340597  0.014579257 -0.049040616 -0.047361741 
   97050     72.79151 0.0094184677 -0.043987894  -0.04026425 
   97060    74.673715 0.0037212679 -0.040481838 -0.040751382 
   97070    73.293357 -0.0019852772 -0.042857976 -0.042455921 
   97080    75.332025 -0.0085776869 -0.050765876 -0.046056798 
   97090    72.583716 -0.0071838446 -0.054447035 -0.049366735 
   97100    73.267861 0.0055102746 -0.047719958 -0.047632634 
   97110    72.871519  0.018648077 -0.031192311 -0.040925837 
   97120    70.694453  0.024638083 -0.019672831 -0.039039557 
   97130    70.842024  0.022949955 -0.015948547 -0.034899038 
   97140    68.930232  0.021864032 -0.0065480197 -0.036381246 
   97150    66.081678  0.024256511  0.013083962 -0.044423793 
   97160     65.09879  0.029015944  0.013395059 -0.031808011 
   97170    66.209009  0.033008965 0.00056983346 -0.0069543775 
   97180    67.222678  0.029651087 0.00093366841 0.0065663398 
   97190    67.907104  0.022051262  0.019178151 -0.0014177655 
   97200    69.175636  0.025971792  0.045992398  -0.01878774 
   97210    70.787336  0.044846053  0.054684595 -0.018502716 
   97220    73.046598  0.058536145   0.04914159 -0.016140945 
   97230    74.763429  0.053196985  0.036711422 -0.017267802 
   97240    73.196192  0.034937483  0.019197913 -0.004893471 
   97250    74.826085    0.0219791  0.012361612  0.012309056 
   97260     73.60356   0.01830118  0.017465132 0.0074157096 
   97270    73.343879  0.019065741   0.02511347 -0.013803014 
   97280    72.804462  0.024380242  0.029522063 -0.024008914 
   97290    71.527032  0.023846767  0.034589975 -0.018172105 
   97300    68.016032  0.018896546  0.039508562 -4.054261e-05 
   97310    65.283729   0.01256326  0.038452886  0.019430291 
   97320    66.208416 0.0019908878  0.027248615  0.027549208 
   97330    65.232211 -0.0058987369   0.01483074  0.025110263 
   97340    67.088726 -0.0075700632  0.010481009  0.026740654 
   97350    65.472462 -0.013235475  0.016034155  0.026751609 
   97360    69.789508  -0.02698462  0.024437222  0.011957334 
   97370    68.752457 -0.028742104  0.032172273 -0.0029392223 
   97380    70.150929 -0.011593164  0.043754094 -0.0013196595 
   97390    72.045781 -0.00098035585  0.045876187 0.00079431612 
   97400    74.011479 -0.0061531099  0.024802259 0.0036823613 
   97410    75.504007 -0.010684764 -0.0050563892  0.010554075 
   97420    73.513732 -0.0064654795 -0.022208725  0.015151853 
   97430    73.200193 0.0013551427 -0.029822617  0.021853436 
   97440    70.926484 0.0084805249 -0.032583882  0.027345725 
   97450     69.35763  0.014901822 -0.026248741  0.023462048 
   97460    68.731602  0.020125506 -0.015652502  0.011794927 
   97470    66.119322  0.026646844 -0.0078236294 0.0084682482 
   97480    65.028237  0.031142414 -0.00014049583  0.016756254 
   97490     66.63528  0.021809019 0.0083522164  0.023436497 
   97500     66.68265 0.0085870656  0.010548213   0.01977092 
   97510    67.147724   0.01087052  0.012055329  0.016220296 
   97520    68.397429  0.024810676  0.017956824  0.023830305 
   97530    69.731756  0.026492263   0.02421856  0.037202649 
   97540    70.919545  0.015356645  0.023569155  0.042764907 
   97550     71.63009  0.012580842 0.0090839097  0.040088414 
   97560    74.063658  0.024968706 -0.0088499354  0.034173286 
   97570    75.251506  0.036036048 -0.017403126  0.025438338 
   97580    75.530877  0.031962817  -0.02378498  0.017088015 
   97590    71.260634  0.022027397 -0.026072834  0.020512565 
   97600    69.526345  0.020507113 -0.019144258  0.038461718 
   97610    67.536357  0.024286116 -0.011887782  0.054423616 
   97620    68.707705  0.022409662 -0.016295261  0.050320466 
   97630     65.57587 0.0099714132  -0.02608043  0.024339298 
   97640    63.517504 -0.0033639107 -0.032591523 0.0013639163 
   97650    69.539412 -0.0038724314 -0.034706665  0.011982323 
   97660    70.703472 0.0070331981 -0.032479291  0.035842199 
   97670    73.549789  0.014873995 -0.027933806  0.039827669 
   97680    73.057013  0.016480632 -0.021686058  0.029189224 
   97690     76.79382  0.010940605 -0.019386728  0.012905823 
   97700    72.624682 0.00058372104 -0.020167391 0.0042568679 
   97710    74.044711 -0.013839312 -0.026817273 0.0032592455 
   97720    71.233197 -0.020730939 -0.032909686 -0.0029594445 
   97730    70.525483 -0.021129672 -0.030240888 -0.0035859639 
   97740    69.319198 -0.032180124 -0.014598838 0.0021886105 
   97750    67.260609 -0.055727747 0.0017711394 0.00019815638 
   97760    65.804176 -0.062779654 0.0052854419 -0.0080827664 
   97770    64.068663 -0.046278235 0.0015073715 -0.012535403 
   97780    67.632152 -0.027922735 -0.0054069274   -0.0101574 
   97790    67.365809 -0.021279065 -0.0074839487 -0.010498612 
   97800    69.294825 -0.026669742 -0.00017172431 -0.013630613 
   97810    70.657033 -0.032782164 0.0076542494 -0.006853906 
   97820    70.756181 -0.037094262  0.011811598 0.0043162584 
   97830    73.069565 -0.032522013  0.014103217 0.00013533109 
   97840    74.850904 -0.015796117  0.011114374 -0.0079012364 
   97850    72.862371 -0.0073482251   0.01165093 -0.0052114045 
   97860    73.134918 -0.0044225121  0.011061622 0.0026139442 
   97870    73.115819  0.006447232 0.0064658934 0.0066891685 
   97880    72.723322  0.013224029 0.0017174138 0.0067474168 
   97890    71.348688  0.019783544 -0.0060708148  0.010729914 
   97900    68.878088  0.038401563 -0.017805597  0.017889742 
   97910    66.269704  0.060302261 -0.025756644  0.023138444 
   97920    63.907671  0.070408723 -0.021382515  0.025395306 
   97930    68.286478  0.062286585 -0.0061480721  0.021662835 
   97940    67.486615  0.040500845 0.0060016494  0.011380855 
   97950    69.177597  0.023835389 0.0047600595 0.0028168079 
   97960    71.139275  0.018847117 -0.0016615459 -0.00030082431 
   97970     72.47457  0.018246075 9.1623478e-05 -0.0014938763 
   97980    72.102468   0.01970692  0.009988783 -0.0090330137 
   97990    74.307739  0.023593217  0.016529015  -0.01631412 
   98000    75.552734   0.02240653  0.017186125 -0.017321349 
   98010    71.665822  0.013769609  0.015652744 -0.019757577 
   98020    71.685571 0.0016554301  0.012278669 -0.023437396 
   98030     69.78295 -0.0085883647 0.0061438375 -0.018557503 
   98040    67.837088 -0.013727979 -0.0028291457 -0.0038953354 
   98050     66.33596 -0.017792274 -0.0075493332  0.003251606 
   98060    64.552454 -0.020055605 -0.0068388066 -0.0053261441 
   98070    67.705196 -0.018782461 -0.0034529432  -0.02006378 
   98080    68.603055 -0.018982423 -4.3559464e-06 -0.028140002 
   98090    71.047522 -0.016151941 0.0086577543 -0.029020696 
   98100     71.56753 -0.0081415461  0.019531468 -0.023397847 
   98110    72.239969 -0.0016922039  0.031121717 -0.0096217784 
   98120    73.823921 0.0011417244  0.043948571  0.012362037 
   98130    74.321966  0.011358291  0.049323351  0.042889091 
   98140     75.01149  0.026698191  0.053439564  0.070748889 
   98150    72.336225  0.028570457    0.0601225  0.070857033 
   98160    70.028298  0.034314283  0.057311896  0.048016746 
   98170    68.342565  0.049096994  0.051746747  0.031321044 
   98180     66.25091  0.054840772  0.048513306  0.027827199 
   98190    68.825348  0.050089303  0.050359584   0.02860278 
   98200    66.752224   0.03887836   0.04847412  0.022616762 
   98210    66.651081  0.031423562  0.042953425   0.01707171 
   98220     68.97397  0.032687305  0.043848716  0.013630707 
   98230    72.020955  0.039259714  0.055285085 0.0048194704 
   98240    75.726539   0.04342387  0.066739445 -0.0095529752 
   98250    74.606081  0.040899288  0.064274142 -0.021186555 
   98260    72.981778  0.039215387  0.053823636 -0.025804416 
   98270    69.909375  0.038358251  0.044211453  -0.02121428 
   98280    67.968927  0.034191284  0.042410644  -0.01634699 
   98290     67.49919   0.02725966  0.044047842 -0.017823093 
   98300    67.610623  0.023595095  0.037633115 -0.019379962 
   98310    64.654202  0.024896324  0.024292569 -0.018488883 
   98320    65.658844  0.027787805  0.019027726 -0.019787632 
   98330    65.891327  0.023924401  0.021538122 -0.025536933 
   98340     67.05421  0.010077561  0.017379515 -0.032778782 
   98350    70.283563 -0.0035108656 0.00091522951 -0.033471461 
   98360    72.792924 -0.0065465926 -0.015148585 -0.024801526 
   98370    75.056917  -0.00236576 -0.012269825 -0.017296182 
   98380    71.146058 0.0026032498 0.0027880013 -0.016115734 
   98390    71.889468 0.0083260694 0.0076862387  -0.01796797 
   98400    71.179868  0.012966388 -0.002153155 -0.012701828 
   98410    69.420049 0.0092972967 -0.0099418234 0.0013591598 
   98420    66.937986 0.0014675761 -0.0055300161  0.015927963 
   98430    64.116928 -0.0044122349 0.0049076264  0.020850852 
   98440    68.618055  -0.01124572 0.0075659421  0.010194039 
   98450    67.501155 -0.023477663 0.0041592723 -0.002281027 
   98460     68.05424 -0.028811926  0.011051744 -0.0016690026 
   98470    69.801982 -0.024057947  0.025576326 0.0063572702 
   98480    71.691437 -0.011721641  0.034000928 0.0039194216 
   98490    73.501377  0.005819479  0.029011186    -0.017057 
   98500    74.295665  0.012210433  0.014200211 -0.039999388 
   98510    74.691363 -9.3315651e-05   0.00968758 -0.048146735 
   98520    74.275116 -0.0076437962  0.028388689 -0.044820002 
   98530    74.521798 0.0041810147  0.050751556 -0.041315782 
   98540    75.210897  0.020430542  0.048701734 -0.038329309 
   98550    70.870688  0.022058265  0.028740815 -0.034608122 
   98560    72.480775  0.010950337  0.015484881 -0.036680273 
   98570    69.966408 -0.00018755556 0.0097972798 -0.042688492 
   98580    68.379327 0.0019414488  0.010230005 -0.044724287 
   98590    67.103567  0.011191932 0.0092964982 -0.037127299 
   98600     68.52197  0.014182582 0.0041011523 -0.030385049 
   98610    66.618488 0.0074302956 -0.0035076158 -0.034550104 
   98620    64.523121 0.0054443966 -0.0091592534 -0.047225791 
   98630    68.741103  0.013547413 -0.012836058 -0.058970588 
   98640    68.177045  0.019792401  -0.01411656 -0.051844621 
   98650    70.525438  0.022527521 -0.015145891 -0.036445395 
   98660    71.733704  0.025639378 -0.017920811 -0.027385473 
   98670    72.064169  0.028632261 -0.017887229 -0.026641498 
   98680    74.340997  0.023713387 -0.014379541 -0.028348505 
   98690    75.308055 0.0068311066  -0.00973162  -0.02934184 
   98700     77.41756 -0.010923313 -0.0088905302 -0.029468296 
   98710    70.722702  -0.01831948 -0.010394395 -0.024614315 
   98720    69.434514 -0.019424447 -0.0084790081 -0.018605321 
   98730    66.067616 -0.018553005 0.0041388622 -0.012357714 
   98740    67.795564 -0.019938635  0.020972067 -0.012742929 
   98750    66.794967 -0.014711763  0.033761518 -0.015334611 
   98760    66.892953 -0.0082714098  0.040269884 -0.010994849 
   98770    67.084849 -0.012305606  0.036179229 -0.0022596658 
   98780    67.583876 -0.025264271  0.026473155 0.0048713532 
   98790    69.154056 -0.029508969  0.015961838 0.0046561739 
   98800    71.700052 -0.011790824  0.010631872 0.00028893712 
   98810     74.41149  0.016459813  0.015800049 -0.0026144238 
   98820    74.219503  0.040043534  0.024444495 -0.0070840425 
   98830     72.36784  0.048949725  0.026369855 -0.015607935 
   98840    72.922045  0.038416232  0.020490841 -0.020336863 
   98850    72.950262  0.019438194  0.015232913 -0.023428967 
   98860    72.177531  0.019140318  0.015958092 -0.029344158 
   98870    69.124685   0.04321305  0.015058849   -0.0347536 
   98880    66.811566  0.060688807 0.0040692286 -0.034015936 
   98890    65.865808  0.066738618 -0.010720245 -0.034662811 
   98900    65.620527  0.082484195  -0.01985013 -0.044131205 
   98910    66.821604  0.097910891 -0.017196844 -0.046648524 
   98920    70.358854  0.092873382 -0.0037415777 -0.034537609 
   98930    73.013142  0.072275516 0.0036008865 -0.022605976 
   98940    76.338923  0.051332968 0.0016636443 -0.020131396 
   98950    72.867084  0.042351829 0.0031237826 -0.021304448 
   98960    74.104456  0.050099402  0.012080713 -0.026523858 
   98970    73.681201  0.053908033  0.016269062 -0.038467625 
   98980    72.911801  0.044758279 0.0090718637 -0.048881321 
   98990    70.977508  0.033757054  0.001170558 -0.047236058 
   99000    68.567979   0.03227082  0.003355644 -0.040597479 
   99010    69.067476  0.036626534 0.0036875065 -0.037196084 
   99020    66.894455  0.031284894 -0.011350243 -0.039065599 
   99030    65.719716  0.023382697 -0.029222491  -0.05018525 
   99040    68.260777  0.028405804 -0.043108419 -0.058867264 
   99050    69.583093  0.038525762  -0.05478707 -0.052174456 
   99060    71.323862  0.045371832 -0.060774855 -0.027940981 
   99070    73.525249  0.044115339 -0.049359324 -0.0038260983 
   99080    72.824282  0.036398365 -0.021959813 0.0027083526 
   99090    75.815745  0.034243555 -0.011569182 -0.0056685841 
   99100    73.320522  0.045210428 -0.026590208 -0.016100331 
   99110     75.16262  0.051659791 -0.038724597 -0.025768545 
   99120    72.376653  0.042416915 -0.033468586 -0.034754801 
   99130    73.041614  0.044123739 -0.022590898 -0.038730175 
   99140    73.031021  0.058275375 -0.018368791 -0.033132836 
   99150    69.179787  0.065165609 -0.014002784 -0.028607281 
   99160    64.314153  0.065967225 -0.0034029225 -0.033348725 
   99170     68.56767  0.072936973 0.0042061187 -0.045812845 
   99180    65.398089  0.073269274 0.0036269929 -0.045868694 
   99190     65.06822  0.069800232 -0.0038251082 -0.042029274 
   99200    69.275981  0.056978342 -0.006359906  -0.04902811 
   99210    72.548089  0.033286966 0.0082315363 -0.058871863 
   99220    75.648633  0.019229984  0.020407287 -0.055538163 
   99230    71.421586  0.023237036  0.020968116 -0.046518798 
   99240    73.921125  0.034916093  0.020669033 -0.054568263 
   99250     74.22499  0.039802576  0.018416141 -0.065008413 
   99260    72.053364  0.034818927  0.015055923 -0.062778228 
   99270    69.506423  0.034011643   0.01297333 -0.053782789 
   99280    67.267226  0.034366474  0.012081109 -0.052162451 
   99290    65.750376  0.029401492  0.002460768 -0.054425288 
   99300    63.108003   0.01707939 -0.011962167 -0.047608469 
   99310    67.891704 0.0089638792 -0.011635053 -0.039750257 
   99320    67.261832  0.014922663 2.3443728e-05 -0.036926407 
   99330    67.951011   0.02369556 0.0092210772 -0.040843817 
   99340    70.289053  0.027942817  0.013826502 -0.041705833 
   99350    72.380219  0.034329985  0.018823835 -0.030116987 
   99360    74.606916  0.047775139  0.023649637 -0.021629372 
   99370     75.19177  0.056208625  0.025361619 -0.027976605 
   99380    76.476944  0.048798676  0.032569318 -0.037042511 
   99390    70.462955  0.034569915  0.038812246 -0.039605449 
   99400    67.931886  0.024556604  0.037780133 -0.032673889 
   99410     66.94651  0.011565493  0.043699362 -0.016052873 
   99420    66.920394 -0.0079570144   0.06801958 -0.0028371084 
   99430    64.537936 -0.022009107  0.088039603 0.0042503133 
   99440    65.968173 -0.025775134  0.078706341 0.0088611367 
   99450    67.856398 -0.023577133  0.045662789  0.011442244 
   99460    68.821854 -0.020997948  0.014144865  0.012046751 
   99470    70.606817 -0.016460987 -0.0011813291  0.014255361 
   99480    72.300591 -0.0042712934 -0.0012535693  0.016339971 
   99490    74.763895 0.0064807696 0.0072533895  0.013455316 
   99500    71.898843 0.0079332208 0.0098938964 0.0030983877 
   99510     73.91167 -0.002719588 0.0026991457 -0.013669539 
   99520    73.286124 -0.0067839215 -0.0021296826 -0.020678914 
   99530    71.990627 0.00057680943 -0.0089894172 -0.011991934 
   99540    70.978692 -0.0027022174  -0.02382747 -0.003724323 
   99550    69.115502 -0.021246339 -0.032224741 -0.0048922705 
   99560    66.552005 -0.036916618 -0.031226555 -0.0094872232 
   99570    64.683896  -0.03031273 -0.028127129 -0.0068547313 
   99580    64.603558 -0.0071330539 -0.022967385 -0.0077453499 
   99590    68.988863  0.011954644 -0.021009198  -0.01408626 
   99600     71.26369  0.015177995 -0.027485773 -0.0080728498 
   99610    74.423794 0.0066734221 -0.035564251  0.010193735 
   99620    74.092585 -0.0035796813 -0.039171532  0.022731517 
   99630    73.096236 -0.0096232672 -0.036098035  0.018008104 
   99640    72.514835 -0.007795494 -0.020621625  0.012479585 
   99650    71.724512 -0.00016489331 -0.00030184051   0.01724698 
   99660    70.156984 0.0047797484 0.0069803272  0.020980308 
   99670    68.426459  0.015397007 -0.000529612  0.014084704 
   99680    65.867949  0.025047572 0.00099235799 -0.00068425071 
   99690    64.108857  0.024726829  0.018093235 -0.00049899437 
   99700    68.619325  0.019101554  0.032850154  0.017618685 
   99710    69.738063 0.0024293158  0.037999428  0.033662954 
   99720    71.320384 -0.014576368  0.033806418  0.035429658 
   99730     71.80608 -0.010241705    0.0194128  0.017182284 
   99740    74.207878 0.0011344368 0.0049498582 0.0038490735 
   99750    73.708728  0.017880292 0.0011763063  0.007907928 
   99760     71.98019  0.032489978 0.0027767443  0.011502126 
   99770     69.81038  0.032950702 0.0041219167 0.0047803431 
   99780    69.015684  0.027136325  0.010412169 0.00027150381 
   99790    66.523701  0.026318509  0.021064078 -0.0019502827 
   99800    65.137269  0.026476887  0.026549346 -0.0082523979 
   99810    64.155265  0.024860526  0.022612102  -0.01558202 
   99820    69.253786   0.03332035 0.0094743149 -0.019099387 
   99830     70.33416  0.046267059 -0.0036488587 -0.015468942 
   99840    72.039265  0.049384312 -0.0022720198  -0.01107555 
   99850     72.39006  0.041897032  0.014500004  -0.01834906 
   99860    76.720754  0.039239768  0.029416051 -0.033890011 
   99870    72.346175  0.040288618  0.028004225 -0.035676683 
   99880     72.62737   0.03774023  0.029174718 -0.027565742 
   99890    70.663336  0.030066504  0.034558634 -0.016316466 
   99900    69.057015   0.01887232  0.037292046  -0.01042276 
   99910    66.502522  0.011922421  0.040854911 -0.019680524 
   99920    65.196805    0.0156873  0.045246959 -0.038605733 
   99930    63.840632  0.021629681  0.038480875 -0.046044457 
   99940     68.15477  0.028517663  0.030102323 -0.035058912 
   99950     67.93091  0.034484947  0.032449575 -0.014969207 
   99960    70.158504   0.03296146  0.038265432 -0.0055923551 
   99970    71.408908  0.023417153  0.039084445  -0.01182138 
   99980    71.317729  0.014481539  0.033556242 -0.022188016 
   99990    73.377984  0.013324989   0.02122154 -0.025342295 
  100000    74.018735  0.018151106 0.0027185245 -0.023712371 
Loop time of 47.1009 on 4 procs for 100000 steps with 256 atoms

Performance: 733.744 ns/day, 0.033 hours/ns, 2123.102 timesteps/s
98.3% CPU use with 4 MPI tasks x no OpenMP threads

MPI task timing breakdown:
Section |  min time  |  avg time  |  max time  |%varavg| %total
---------------------------------------------------------------
Pair    | 24.239     | 25.145     | 25.797     |  11.3 | 53.39
Neigh   | 0.58043    | 0.59851    | 0.60559    |   1.4 |  1.27
Comm    | 13.832     | 14.276     | 15.123     |  13.9 | 30.31
Output  | 1.5556     | 1.8443     | 2.6909     |  36.0 |  3.92
Modify  | 3.1841     | 3.3873     | 3.6591     |  11.1 |  7.19
Other   |            | 1.85       |            |       |  3.93

Nlocal:    64 ave 70 max 59 min
Histogram: 1 0 1 0 0 1 0 0 0 1
Nghost:    2073 ave 2078 max 2067 min
Histogram: 1 0 0 0 1 0 0 1 0 1
Neighs:    11612.2 ave 12397 max 10975 min
Histogram: 1 0 0 1 1 0 0 0 0 1

Total # of neighbors = 46449
Ave neighs/atom = 181.441
Neighbor list builds = 1425
Dangerous builds = 0
write_data 1_nve_product.data
#variable     k equal (v_k11+v_k22+v_k33)/3.0
#variable     ndens equal count(all)/vol
#print        "average conductivity: $k[W/mK] @ $T K, ${ndens} /A\^3"
Total wall time: 0:00:50
